# vtk DataFile Version 3.0
#This file was generated by the deal.II library on 2016/1/13 at 15:24:09
ASCII
DATASET UNSTRUCTURED_GRID

POINTS 5120 double
-0.707107 -0.707107 0
-0.634393 -0.77301 0
-0.681218 -0.681218 0
-0.607969 -0.738778 0
-0.634393 -0.77301 0
-0.55557 -0.83147 0
-0.607969 -0.738778 0
-0.531665 -0.792615 0
-0.681218 -0.681218 0
-0.607969 -0.738778 0
-0.65533 -0.65533 0
-0.581544 -0.704546 0
-0.607969 -0.738778 0
-0.531665 -0.792615 0
-0.581544 -0.704546 0
-0.507759 -0.753761 0
-0.55557 -0.83147 0
-0.471397 -0.881921 0
-0.531665 -0.792615 0
-0.450016 -0.838455 0
-0.471397 -0.881921 0
-0.382683 -0.92388 0
-0.450016 -0.838455 0
-0.366098 -0.880048 0
-0.531665 -0.792615 0
-0.450016 -0.838455 0
-0.507759 -0.753761 0
-0.428636 -0.794988 0
-0.450016 -0.838455 0
-0.366098 -0.880048 0
-0.428636 -0.794988 0
-0.349513 -0.836215 0
-0.65533 -0.65533 0
-0.581544 -0.704546 0
-0.629442 -0.629442 0
-0.556647 -0.672174 0
-0.581544 -0.704546 0
-0.507759 -0.753761 0
-0.556647 -0.672174 0
-0.483853 -0.714907 0
-0.629442 -0.629442 0
-0.556647 -0.672174 0
-0.603553 -0.603553 0
-0.53175 -0.639803 0
-0.556647 -0.672174 0
-0.483853 -0.714907 0
-0.53175 -0.639803 0
-0.459948 -0.676052 0
-0.507759 -0.753761 0
-0.428636 -0.794988 0
-0.483853 -0.714907 0
-0.40839 -0.753645 0
-0.428636 -0.794988 0
-0.349513 -0.836215 0
-0.40839 -0.753645 0
-0.332927 -0.792383 0
-0.483853 -0.714907 0
-0.40839 -0.753645 0
-0.459948 -0.676052 0
-0.388145 -0.712302 0
-0.40839 -0.753645 0
-0.332927 -0.792383 0
-0.388145 -0.712302 0
-0.316342 -0.748551 0
-0.382683 -0.92388 0
-0.290285 -0.95694 0
-0.366098 -0.880048 0
-0.276678 -0.908358 0
-0.290285 -0.95694 0
-0.19509 -0.980785 0
-0.276678 -0.908358 0
-0.18586 -0.932061 0
-0.366098 -0.880048 0
-0.276678 -0.908358 0
-0.349513 -0.836215 0
-0.263072 -0.859776 0
-0.276678 -0.908358 0
-0.18586 -0.932061 0
-0.263072 -0.859776 0
-0.176631 -0.883336 0
-0.19509 -0.980785 0
-0.0980171 -0.995185 0
-0.18586 -0.932061 0
-0.0931662 -0.946329 0
-0.0980171 -0.995185 0
-1.83697e-16 -1 0
-0.0931662 -0.946329 0
-1.72216e-16 -0.955806 0
-0.18586 -0.932061 0
-0.0931662 -0.946329 0
-0.176631 -0.883336 0
-0.0883153 -0.897474 0
-0.0931662 -0.946329 0
-1.72216e-16 -0.955806 0
-0.0883153 -0.897474 0
-1.60735e-16 -0.911612 0
-0.349513 -0.836215 0
-0.263072 -0.859776 0
-0.332927 -0.792383 0
-0.250164 -0.813498 0
-0.263072 -0.859776 0
-0.176631 -0.883336 0
-0.250164 -0.813498 0
-0.167401 -0.834612 0
-0.332927 -0.792383 0
-0.250164 -0.813498 0
-0.316342 -0.748551 0
-0.237256 -0.767219 0
-0.250164 -0.813498 0
-0.167401 -0.834612 0
-0.237256 -0.767219 0
-0.158171 -0.785887 0
-0.176631 -0.883336 0
-0.0883153 -0.897474 0
-0.167401 -0.834612 0
-0.0837004 -0.851015 0
-0.0883153 -0.897474 0
-1.60735e-16 -0.911612 0
-0.0837004 -0.851015 0
-1.49254e-16 -0.867417 0
-0.167401 -0.834612 0
-0.0837004 -0.851015 0
-0.158171 -0.785887 0
-0.0790854 -0.804555 0
-0.0837004 -0.851015 0
-1.49254e-16 -0.867417 0
-0.0790854 -0.804555 0
-1.37773e-16 -0.823223 0
-0.603553 -0.603553 0
-0.53175 -0.639803 0
-0.577665 -0.577665 0
-0.508188 -0.609429 0
-0.53175 -0.639803 0
-0.459948 -0.676052 0
-0.508188 -0.609429 0
-0.438711 -0.641192 0
-0.577665 -0.577665 0
-0.508188 -0.609429 0
-0.551777 -0.551777 0
-0.484625 -0.579054 0
-0.508188 -0.609429 0
-0.438711 -0.641192 0
-0.484625 -0.579054 0
-0.417474 -0.606332 0
-0.459948 -0.676052 0
-0.388145 -0.712302 0
-0.438711 -0.641192 0
-0.369233 -0.672956 0
-0.388145 -0.712302 0
-0.316342 -0.748551 0
-0.369233 -0.672956 0
-0.299756 -0.704719 0
-0.438711 -0.641192 0
-0.369233 -0.672956 0
-0.417474 -0.606332 0
-0.350322 -0.63361 0
-0.369233 -0.672956 0
-0.299756 -0.704719 0
-0.350322 -0.63361 0
-0.283171 -0.660887 0
-0.551777 -0.551777 0
-0.484625 -0.579054 0
-0.525888 -0.525888 0
-0.461063 -0.54868 0
-0.484625 -0.579054 0
-0.417474 -0.606332 0
-0.461063 -0.54868 0
-0.396237 -0.571472 0
-0.525888 -0.525888 0
-0.461063 -0.54868 0
-0.5 -0.5 0
-0.4375 -0.518306 0
-0.461063 -0.54868 0
-0.396237 -0.571472 0
-0.4375 -0.518306 0
-0.375 -0.536612 0
-0.417474 -0.606332 0
-0.350322 -0.63361 0
-0.396237 -0.571472 0
-0.331411 -0.594264 0
-0.350322 -0.63361 0
-0.283171 -0.660887 0
-0.331411 -0.594264 0
-0.266585 -0.617055 0
-0.396237 -0.571472 0
-0.331411 -0.594264 0
-0.375 -0.536612 0
-0.3125 -0.554917 0
-0.331411 -0.594264 0
-0.266585 -0.617055 0
-0.3125 -0.554917 0
-0.25 -0.573223 0
-0.316342 -0.748551 0
-0.237256 -0.767219 0
-0.299756 -0.704719 0
-0.224817 -0.723297 0
-0.237256 -0.767219 0
-0.158171 -0.785887 0
-0.224817 -0.723297 0
-0.149878 -0.741874 0
-0.299756 -0.704719 0
-0.224817 -0.723297 0
-0.283171 -0.660887 0
-0.212378 -0.679374 0
-0.224817 -0.723297 0
-0.149878 -0.741874 0
-0.212378 -0.679374 0
-0.141585 -0.697861 0
-0.158171 -0.785887 0
-0.0790854 -0.804555 0
-0.149878 -0.741874 0
-0.0749391 -0.760452 0
-0.0790854 -0.804555 0
-1.37773e-16 -0.823223 0
-0.0749391 -0.760452 0
-1.26292e-16 -0.779029 0
-0.149878 -0.741874 0
-0.0749391 -0.760452 0
-0.141585 -0.697861 0
-0.0707927 -0.716348 0
-0.0749391 -0.760452 0
-1.26292e-16 -0.779029 0
-0.0707927 -0.716348 0
-1.14811e-16 -0.734835 0
-0.283171 -0.660887 0
-0.212378 -0.679374 0
-0.266585 -0.617055 0
-0.199939 -0.635452 0
-0.212378 -0.679374 0
-0.141585 -0.697861 0
-0.199939 -0.635452 0
-0.133293 -0.653848 0
-0.266585 -0.617055 0
-0.199939 -0.635452 0
-0.25 -0.573223 0
-0.1875 -0.591529 0
-0.199939 -0.635452 0
-0.133293 -0.653848 0
-0.1875 -0.591529 0
-0.125 -0.609835 0
-0.141585 -0.697861 0
-0.0707927 -0.716348 0
-0.133293 -0.653848 0
-0.0666464 -0.672244 0
-0.0707927 -0.716348 0
-1.14811e-16 -0.734835 0
-0.0666464 -0.672244 0
-1.0333e-16 -0.690641 0
-0.133293 -0.653848 0
-0.0666464 -0.672244 0
-0.125 -0.609835 0
-0.0625 -0.628141 0
-0.0666464 -0.672244 0
-1.0333e-16 -0.690641 0
-0.0625 -0.628141 0
-9.18485e-17 -0.646447 0
-1.83697e-16 -1 0
0.0980171 -0.995185 0
-1.72216e-16 -0.955806 0
0.0931662 -0.946329 0
0.0980171 -0.995185 0
0.19509 -0.980785 0
0.0931662 -0.946329 0
0.18586 -0.932061 0
-1.72216e-16 -0.955806 0
0.0931662 -0.946329 0
-1.60735e-16 -0.911612 0
0.0883153 -0.897474 0
0.0931662 -0.946329 0
0.18586 -0.932061 0
0.0883153 -0.897474 0
0.176631 -0.883336 0
0.19509 -0.980785 0
0.290285 -0.95694 0
0.18586 -0.932061 0
0.276678 -0.908358 0
0.290285 -0.95694 0
0.382683 -0.92388 0
0.276678 -0.908358 0
0.366098 -0.880048 0
0.18586 -0.932061 0
0.276678 -0.908358 0
0.176631 -0.883336 0
0.263072 -0.859776 0
0.276678 -0.908358 0
0.366098 -0.880048 0
0.263072 -0.859776 0
0.349513 -0.836215 0
-1.60735e-16 -0.911612 0
0.0883153 -0.897474 0
-1.49254e-16 -0.867417 0
0.0837004 -0.851015 0
0.0883153 -0.897474 0
0.176631 -0.883336 0
0.0837004 -0.851015 0
0.167401 -0.834612 0
-1.49254e-16 -0.867417 0
0.0837004 -0.851015 0
-1.37773e-16 -0.823223 0
0.0790854 -0.804555 0
0.0837004 -0.851015 0
0.167401 -0.834612 0
0.0790854 -0.804555 0
0.158171 -0.785887 0
0.176631 -0.883336 0
0.263072 -0.859776 0
0.167401 -0.834612 0
0.250164 -0.813498 0
0.263072 -0.859776 0
0.349513 -0.836215 0
0.250164 -0.813498 0
0.332927 -0.792383 0
0.167401 -0.834612 0
0.250164 -0.813498 0
0.158171 -0.785887 0
0.237256 -0.767219 0
0.250164 -0.813498 0
0.332927 -0.792383 0
0.237256 -0.767219 0
0.316342 -0.748551 0
0.382683 -0.92388 0
0.471397 -0.881921 0
0.366098 -0.880048 0
0.450016 -0.838455 0
0.471397 -0.881921 0
0.55557 -0.83147 0
0.450016 -0.838455 0
0.531665 -0.792615 0
0.366098 -0.880048 0
0.450016 -0.838455 0
0.349513 -0.836215 0
0.428636 -0.794988 0
0.450016 -0.838455 0
0.531665 -0.792615 0
0.428636 -0.794988 0
0.507759 -0.753761 0
0.55557 -0.83147 0
0.634393 -0.77301 0
0.531665 -0.792615 0
0.607969 -0.738778 0
0.634393 -0.77301 0
0.707107 -0.707107 0
0.607969 -0.738778 0
0.681218 -0.681218 0
0.531665 -0.792615 0
0.607969 -0.738778 0
0.507759 -0.753761 0
0.581544 -0.704546 0
0.607969 -0.738778 0
0.681218 -0.681218 0
0.581544 -0.704546 0
0.65533 -0.65533 0
0.349513 -0.836215 0
0.428636 -0.794988 0
0.332927 -0.792383 0
0.40839 -0.753645 0
0.428636 -0.794988 0
0.507759 -0.753761 0
0.40839 -0.753645 0
0.483853 -0.714907 0
0.332927 -0.792383 0
0.40839 -0.753645 0
0.316342 -0.748551 0
0.388145 -0.712302 0
0.40839 -0.753645 0
0.483853 -0.714907 0
0.388145 -0.712302 0
0.459948 -0.676052 0
0.507759 -0.753761 0
0.581544 -0.704546 0
0.483853 -0.714907 0
0.556647 -0.672174 0
0.581544 -0.704546 0
0.65533 -0.65533 0
0.556647 -0.672174 0
0.629442 -0.629442 0
0.483853 -0.714907 0
0.556647 -0.672174 0
0.459948 -0.676052 0
0.53175 -0.639803 0
0.556647 -0.672174 0
0.629442 -0.629442 0
0.53175 -0.639803 0
0.603553 -0.603553 0
-1.37773e-16 -0.823223 0
0.0790854 -0.804555 0
-1.26292e-16 -0.779029 0
0.0749391 -0.760452 0
0.0790854 -0.804555 0
0.158171 -0.785887 0
0.0749391 -0.760452 0
0.149878 -0.741874 0
-1.26292e-16 -0.779029 0
0.0749391 -0.760452 0
-1.14811e-16 -0.734835 0
0.0707927 -0.716348 0
0.0749391 -0.760452 0
0.149878 -0.741874 0
0.0707927 -0.716348 0
0.141585 -0.697861 0
0.158171 -0.785887 0
0.237256 -0.767219 0
0.149878 -0.741874 0
0.224817 -0.723297 0
0.237256 -0.767219 0
0.316342 -0.748551 0
0.224817 -0.723297 0
0.299756 -0.704719 0
0.149878 -0.741874 0
0.224817 -0.723297 0
0.141585 -0.697861 0
0.212378 -0.679374 0
0.224817 -0.723297 0
0.299756 -0.704719 0
0.212378 -0.679374 0
0.283171 -0.660887 0
-1.14811e-16 -0.734835 0
0.0707927 -0.716348 0
-1.0333e-16 -0.690641 0
0.0666464 -0.672244 0
0.0707927 -0.716348 0
0.141585 -0.697861 0
0.0666464 -0.672244 0
0.133293 -0.653848 0
-1.0333e-16 -0.690641 0
0.0666464 -0.672244 0
-9.18485e-17 -0.646447 0
0.0625 -0.628141 0
0.0666464 -0.672244 0
0.133293 -0.653848 0
0.0625 -0.628141 0
0.125 -0.609835 0
0.141585 -0.697861 0
0.212378 -0.679374 0
0.133293 -0.653848 0
0.199939 -0.635452 0
0.212378 -0.679374 0
0.283171 -0.660887 0
0.199939 -0.635452 0
0.266585 -0.617055 0
0.133293 -0.653848 0
0.199939 -0.635452 0
0.125 -0.609835 0
0.1875 -0.591529 0
0.199939 -0.635452 0
0.266585 -0.617055 0
0.1875 -0.591529 0
0.25 -0.573223 0
0.316342 -0.748551 0
0.388145 -0.712302 0
0.299756 -0.704719 0
0.369233 -0.672956 0
0.388145 -0.712302 0
0.459948 -0.676052 0
0.369233 -0.672956 0
[...]
POINT_DATA 5120
SCALARS solution double 1
LOOKUP_TABLE default
0 0 -0.0377209 -0.0294979 0 0 -0.0294979 -0.0130573 -0.0377209 -0.0294979 -0.0697022 -0.0541012 -0.0294979 -0.0130573 -0.0541012 -0.0243009 0 0 -0.0130573 0.00639007 0 0 0.00639007 0.0252757 -0.0130573 0.00639007 -0.0243009 0.0107774 0.00639007 0.0252757 0.0107774 0.0450187 -0.0697022 -0.0541012 -0.09619 -0.073066 -0.0541012 -0.0243009 -0.073066 -0.0337603 -0.09619 -0.073066 -0.117465 -0.0880863 -0.073066 -0.0337603 -0.0880863 -0.0414825 -0.0243009 0.0107774 -0.0337603 0.0132283 0.0107774 0.0450187 0.0132283 0.0596142 -0.0337603 0.0132283 -0.0414825 0.0142184 0.0132283 0.0596142 0.0142184 0.0694968 0 0 0.0252757 0.0450837 0 0 0.0450837 0.0583866 0.0252757 0.0450837 0.0450187 0.0802125 0.0450837 0.0583866 0.0802125 0.104477 0 0 0.0583866 0.0666656 0 0 0.0666656 0.063368 0.0583866 0.0666656 0.104477 0.119569 0.0666656 0.063368 0.119569 0.115011 0.0450187 0.0802125 0.0596142 0.105015 0.0802125 0.104477 0.105015 0.139062 0.0596142 0.105015 0.0694968 0.122082 0.105015 0.139062 0.122082 0.163057 0.104477 0.119569 0.139062 0.157894 0.119569 0.115011 0.157894 0.155567 0.139062 0.157894 0.163057 0.185402 0.157894 0.155567 0.185402 0.185774 -0.117465 -0.0880863 -0.133837 -0.0987283 -0.0880863 -0.0414825 -0.0987283 -0.0471094 -0.133837 -0.0987283 -0.14564 -0.106275 -0.0987283 -0.0471094 -0.106275 -0.0514801 -0.0414825 0.0142184 -0.0471094 0.0137306 0.0142184 0.0694968 0.0137306 0.0751401 -0.0471094 0.0137306 -0.0514801 0.0122361 0.0137306 0.0751401 0.0122361 0.0770489 -0.14564 -0.106275 -0.15323 -0.110965 -0.106275 -0.0514801 -0.110965 -0.0546472 -0.15323 -0.110965 -0.156983 -0.113051 -0.110965 -0.0546472 -0.113051 -0.0566705 -0.0514801 0.0122361 -0.0546472 0.00993815 0.0122361 0.0770489 0.00993815 0.0757502 -0.0546472 0.00993815 -0.0566705 0.007041 0.00993815 0.0757502 0.007041 0.0717847 0.0694968 0.122082 0.0751401 0.131936 0.122082 0.163057 0.131936 0.176446 0.0751401 0.131936 0.0770489 0.136197 0.131936 0.176446 0.136197 0.18282 0.163057 0.185402 0.176446 0.202304 0.185402 0.185774 0.202304 0.206446 0.176446 0.202304 0.18282 0.211175 0.202304 0.206446 0.211175 0.218466 0.0770489 0.136197 0.0757502 0.135577 0.136197 0.18282 0.135577 0.183023 0.0757502 0.135577 0.0717847 0.130811 0.135577 0.183023 0.130811 0.177928 0.18282 0.211175 0.183023 0.212935 0.211175 0.218466 0.212935 0.222771 0.183023 0.212935 0.177928 0.208534 0.212935 0.222771 0.208534 0.220334 0 0 0.063368 0.0666656 0 0 0.0666656 0.0583866 0.063368 0.0666656 0.115011 0.119569 0.0666656 0.0583866 0.119569 0.104477 0 0 0.0583866 0.0450837 0 0 0.0450837 0.0252757 0.0583866 0.0450837 0.104477 0.0802125 0.0450837 0.0252757 0.0802125 0.0450187 0.115011 0.119569 0.155567 0.157894 0.119569 0.104477 0.157894 0.139062 0.155567 0.157894 0.185774 0.185402 0.157894 0.139062 0.185402 0.163057 0.104477 0.0802125 0.139062 0.105015 0.0802125 0.0450187 0.105015 0.0596142 0.139062 0.105015 0.163057 0.122082 0.105015 0.0596142 0.122082 0.0694968 0 0 0.0252757 0.00639007 0 0 0.00639007 -0.0130573 0.0252757 0.00639007 0.0450187 0.0107774 0.00639007 -0.0130573 0.0107774 -0.0243009 0 0 -0.0130573 -0.0294979 0 0 -0.0294979 -0.0377209 -0.0130573 -0.0294979 -0.0243009 -0.0541012 -0.0294979 -0.0377209 -0.0541012 -0.0697022 0.0450187 0.0107774 0.0596142 0.0132283 0.0107774 -0.0243009 0.0132283 -0.0337603 0.0596142 0.0132283 0.0694968 0.0142184 0.0132283 -0.0337603 0.0142184 -0.0414825 -0.0243009 -0.0541012 -0.0337603 -0.073066 -0.0541012 -0.0697022 -0.073066 -0.09619 -0.0337603 -0.073066 -0.0414825 -0.0880863 -0.073066 -0.09619 -0.0880863 -0.117465 0.185774 0.185402 0.206446 0.202304 0.185402 0.163057 0.202304 0.176446 0.206446 0.202304 0.218466 0.211175 0.202304 0.176446 0.211175 0.18282 0.163057 0.122082 0.176446 0.131936 0.122082 0.0694968 0.131936 0.0751401 0.176446 0.131936 0.18282 0.136197 0.131936 0.0751401 0.136197 0.0770489 0.218466 0.211175 0.222771 0.212935 0.211175 0.18282 0.212935 0.183023 0.222771 0.212935 0.220334 0.208534 0.212935 0.183023 0.208534 0.177928 0.18282 0.136197 0.183023 0.135577 0.136197 0.0770489 0.135577 0.0757502 0.183023 0.135577 0.177928 0.130811 0.135577 0.0757502 0.130811 0.0717847 0.0694968 0.0142184 0.0751401 0.0137306 0.0142184 -0.0414825 0.0137306 -0.0471094 0.0751401 0.0137306 0.0770489 0.0122361 0.0137306 -0.0471094 0.0122361 -0.0514801 -0.0414825 -0.0880863 -0.0471094 -0.0987283 -0.0880863 -0.117465 -0.0987283 -0.133837 -0.0471094 -0.0987283 -0.0514801 -0.106275 -0.0987283 -0.133837 -0.106275 -0.14564 0.0770489 0.0122361 0.0757502 0.00993815 0.0122361 -0.0514801 0.00993815 -0.0546472 0.0757502 0.00993815 0.0717847 0.007041 0.00993815 -0.0546472 0.007041 -0.0566705 -0.0514801 -0.106275 -0.0546472 -0.110965 -0.106275 -0.14564 -0.110965 -0.15323 -0.0546472 -0.110965 -0.0566705 -0.113051 -0.110965 -0.15323 -0.113051 -0.156983 -0.156983 -0.113051 -0.157286 -0.112315 -0.113051 -0.0566705 -0.112315 -0.0568208 -0.157286 -0.112315 -0.154538 -0.109704 -0.112315 -0.0568208 -0.109704 -0.0561523 -0.0566705 0.007041 -0.0568208 0.00471935 0.007041 0.0717847 0.00471935 0.0667834 -0.0568208 0.00471935 -0.0561523 0.0022452 0.00471935 0.0667834 0.0022452 0.0607035 -0.154538 -0.109704 -0.149141 -0.105466 -0.109704 -0.0561523 -0.105466 -0.0547469 -0.149141 -0.105466 -0.141504 -0.0998523 -0.105466 -0.0547469 -0.0998523 -0.052688 -0.0561523 0.0022452 -0.0547469 -0.000284854 0.0022452 0.0607035 -0.000284854 0.0538267 -0.0547469 -0.000284854 -0.052688 -0.00277805 -0.000284854 0.0538267 -0.00277805 0.0464275 0.0717847 0.130811 0.0667834 0.123397 0.130811 0.177928 0.123397 0.168995 0.0667834 0.123397 0.0607035 0.113989 0.123397 0.168995 0.113989 0.157143 0.177928 0.208534 0.168995 0.19933 0.208534 0.220334 0.19933 0.212155 0.168995 0.19933 0.157143 0.186283 0.19933 0.212155 0.186283 0.199243 0.0607035 0.113989 0.0538267 0.103057 0.113989 0.157143 0.103057 0.14303 0.0538267 0.103057 0.0464275 0.0910576 0.103057 0.14303 0.0910576 0.127298 0.157143 0.186283 0.14303 0.170233 0.186283 0.199243 0.170233 0.182606 0.14303 0.170233 0.127298 0.151999 0.170233 0.182606 0.151999 0.163232 -0.141504 -0.0998523 -0.13203 -0.0931131 -0.0998523 -0.052688 -0.0931131 -0.0500596 -0.13203 -0.0931131 -0.121118 -0.0854935 -0.0931131 -0.0500596 -0.0854935 -0.0469456 -0.052688 -0.00277805 -0.0500596 -0.00514635 -0.00277805 0.0464275 -0.00514635 0.0387704 -0.0500596 -0.00514635 -0.0469456 -0.0073072 -0.00514635 0.0387704 -0.0073072 0.0311078 -0.121118 -0.0854935 -0.10916 -0.0772329 -0.0854935 -0.0469456 -0.0772329 -0.0434294 -0.10916 -0.0772329 -0.0965338 -0.068563 -0.0772329 -0.0434294 -0.068563 -0.0395928 -0.0469456 -0.0073072 -0.0434294 -0.00918422 -0.0073072 0.0311078 -0.00918422 0.0236773 -0.0434294 -0.00918422 -0.0395928 -0.0107079 -0.00918422 0.0236773 -0.0107079 0.0167002 0.0464275 0.0910576 0.0387704 0.0784358 0.0910576 0.127298 0.0784358 0.110569 0.0387704 0.0784358 0.0311078 0.0656146 0.0784358 0.110569 0.0656146 0.0934359 0.127298 0.151999 0.110569 0.132379 0.151999 0.163232 0.132379 0.142082 0.110569 0.132379 0.0934359 0.112133 0.132379 0.142082 0.112133 0.120073 0.0311078 0.0656146 0.0236773 0.0529933 0.0656146 0.0934359 0.0529933 0.0764591 0.0236773 0.0529933 0.0167002 0.0409436 0.0529933 0.0764591 0.0409436 0.0601579 0.0934359 0.112133 0.0764591 0.0919743 0.112133 0.120073 0.0919743 0.0980679 0.0764591 0.0919743 0.0601579 0.072568 0.0919743 0.0980679 0.072568 0.0768663 0.220334 0.208534 0.212155 0.19933 0.208534 0.177928 0.19933 0.168995 0.212155 0.19933 0.199243 0.186283 0.19933 0.168995 0.186283 0.157143 0.177928 0.130811 0.168995 0.123397 0.130811 0.0717847 0.123397 0.0667834 0.168995 0.123397 0.157143 0.113989 0.123397 0.0667834 0.113989 0.0607035 0.199243 0.186283 0.182606 0.170233 0.186283 0.157143 0.170233 0.14303 0.182606 0.170233 0.163232 0.151999 0.170233 0.14303 0.151999 0.127298 0.157143 0.113989 0.14303 0.103057 0.113989 0.0607035 0.103057 0.0538267 0.14303 0.103057 0.127298 0.0910576 0.103057 0.0538267 0.0910576 0.0464275 0.0717847 0.007041 0.0667834 0.00471935 0.007041 -0.0566705 0.00471935 -0.0568208 0.0667834 0.00471935 0.0607035 0.0022452 0.00471935 -0.0568208 0.0022452 -0.0561523 -0.0566705 -0.113051 -0.0568208 -0.112315 -0.113051 -0.156983 -0.112315 -0.157286 -0.0568208 -0.112315 -0.0561523 -0.109704 -0.112315 -0.157286 -0.109704 -0.154538 0.0607035 0.0022452 0.0538267 -0.000284854 0.0022452 -0.0561523 -0.000284854 -0.0547469 0.0538267 -0.000284854 0.0464275 -0.00277805 -0.000284854 -0.0547469 -0.00277805 -0.052688 -0.0561523 -0.109704 -0.0547469 -0.105466 -0.109704 -0.154538 -0.105466 -0.149141 -0.0547469 -0.105466 -0.052688 -0.0998523 -0.105466 -0.149141 -0.0998523 -0.141504 0.163232 0.151999 0.142082 0.132379 0.151999 0.127298 0.132379 0.110569 0.142082 0.132379 0.120073 0.112133 0.132379 0.110569 0.112133 0.0934359 0.127298 0.0910576 0.110569 0.0784358 0.0910576 0.0464275 0.0784358 0.0387704 0.110569 0.0784358 0.0934359 0.0656146 0.0784358 0.0387704 0.0656146 0.0311078 0.120073 0.112133 0.0980679 0.0919743 0.112133 0.0934359 0.0919743 0.0764591 0.0980679 0.0919743 0.0768663 0.072568 0.0919743 0.0764591 0.072568 0.0601579 0.0934359 0.0656146 0.0764591 0.0529933 0.0656146 0.0311078 0.0529933 0.0236773 0.0764591 0.0529933 0.0601579 0.0409436 0.0529933 0.0236773 0.0409436 0.0167002 0.0464275 -0.00277805 0.0387704 -0.00514635 -0.00277805 -0.052688 -0.00514635 -0.0500596 0.0387704 -0.00514635 0.0311078 -0.0073072 -0.00514635 -0.0500596 -0.0073072 -0.0469456 -0.052688 -0.0998523 -0.0500596 -0.0931131 -0.0998523 -0.141504 -0.0931131 -0.13203 -0.0500596 -0.0931131 -0.0469456 -0.0854935 -0.0931131 -0.13203 -0.0854935 -0.121118 0.0311078 -0.0073072 0.0236773 -0.00918422 -0.0073072 -0.0469456 -0.00918422 -0.0434294 0.0236773 -0.00918422 0.0167002 -0.0107079 -0.00918422 -0.0434294 -0.0107079 -0.0395928 -0.0469456 -0.0854935 -0.0434294 -0.0772329 -0.0854935 -0.121118 -0.0772329 -0.10916 -0.0434294 -0.0772329 -0.0395928 -0.068563 -0.0772329 -0.10916 -0.068563 -0.0965338 0 -0.0377209 0 -0.0546536 -0.0377209 -0.0697022 -0.0546536 -0.0991849 0 -0.0546536 0 -0.0638486 -0.0546536 -0.0991849 -0.0638486 -0.11535 -0.0697022 -0.09619 -0.0991849 -0.132427 -0.09619 -0.117465 -0.132427 -0.157666 -0.0991849 -0.132427 -0.11535 -0.155214 -0.132427 -0.157666 -0.155214 -0.184261 0 -0.0638486 0 -0.0684953 -0.0638486 -0.11535 -0.0684953 -0.123112 0 -0.0684953 0 -0.061818 -0.0684953 -0.123112 -0.061818 -0.111708 -0.11535 -0.155214 -0.123112 -0.162918 -0.155214 -0.184261 -0.162918 -0.191784 -0.123112 -0.162918 -0.111708 -0.150342 -0.162918 -0.191784 -0.150342 -0.178503 -0.117465 -0.133837 -0.157666 -0.174703 -0.133837 -0.14564 -0.174703 -0.185714 -0.157666 -0.174703 -0.184261 -0.201785 -0.174703 -0.185714 -0.201785 -0.212065 -0.14564 -0.15323 -0.185714 -0.191254 -0.15323 -0.156983 -0.191254 -0.191901 -0.185714 -0.191254 -0.212065 -0.215838 -0.191254 -0.191901 -0.215838 -0.21387 -0.184261 -0.201785 -0.191784 -0.2099 -0.201785 -0.212065 -0.2099 -0.219858 -0.191784 -0.2099 -0.178503 -0.197064 -0.2099 -0.219858 -0.197064 -0.20697 -0.212065 -0.215838 -0.219858 -0.222549 -0.215838 -0.21387 -0.222549 -0.218899 -0.219858 -0.222549 -0.20697 -0.209225 -0.222549 -0.218899 -0.209225 -0.204875 0 -0.061818 0 -0.0553192 -0.061818 -0.111708 -0.0553192 -0.0991912 0 -0.0553192 0 -0.0391336 -0.0553192 -0.0991912 -0.0391336 -0.0702663 -0.111708 -0.150342 -0.0991912 -0.13099 -0.150342 -0.178503 -0.13099 -0.153761 -0.0991912 -0.13099 -0.0702663 -0.0938854 -0.13099 -0.153761 -0.0938854 -0.110558 0 -0.0391336 0 -0.0202139 -0.0391336 -0.0702663 -0.0202139 -0.0362369 0 -0.0202139 0 2.56517e-14 -0.0202139 -0.0362369 2.56517e-14 4.4371e-14 -0.0702663 -0.0938854 -0.0362369 -0.0478259 -0.0938854 -0.110558 -0.0478259 -0.0561244 -0.0362369 -0.0478259 4.4371e-14 5.63511e-14 -0.0478259 -0.0561244 5.63511e-14 4.90504e-14 -0.178503 -0.197064 -0.153761 -0.167657 -0.197064 -0.20697 -0.167657 -0.174821 -0.153761 -0.167657 -0.110558 -0.120203 -0.167657 -0.174821 -0.120203 -0.125209 -0.20697 -0.209225 -0.174821 -0.176033 -0.209225 -0.204875 -0.176033 -0.172099 -0.174821 -0.176033 -0.125209 -0.126104 -0.176033 -0.172099 -0.126104 -0.123438 -0.110558 -0.120203 -0.0561244 -0.0614039 -0.120203 -0.125209 -0.0614039 -0.0642876 -0.0561244 -0.0614039 4.90504e-14 4.21442e-14 -0.0614039 -0.0642876 4.21442e-14 2.83155e-14 -0.125209 -0.126104 -0.0642876 -0.0650414 -0.126104 -0.123438 -0.0650414 -0.0639412 -0.0642876 -0.0650414 2.83155e-14 7.61726e-15 -0.0650414 -0.0639412 7.61726e-15 -1.29423e-14 -0.156983 -0.157286 -0.191901 -0.188904 -0.157286 -0.154538 -0.188904 -0.182626 -0.191901 -0.188904 -0.21387 -0.208163 -0.188904 -0.182626 -0.208163 -0.199137 -0.154538 -0.149141 -0.182626 -0.173562 -0.149141 -0.141504 -0.173562 -0.162202 -0.182626 -0.173562 -0.199137 -0.187339 -0.173562 -0.162202 -0.187339 -0.173309 -0.21387 -0.208163 -0.218899 -0.211645 -0.208163 -0.199137 -0.211645 -0.201178 -0.218899 -0.211645 -0.204875 -0.197495 -0.211645 -0.201178 -0.197495 -0.187139 -0.199137 -0.187339 -0.201178 -0.18806 -0.187339 -0.173309 -0.18806 -0.172845 -0.201178 -0.18806 -0.187139 -0.174347 -0.18806 -0.172845 -0.174347 -0.159647 -0.141504 -0.13203 -0.162202 -0.149034 -0.13203 -0.121118 -0.149034 -0.134533 -0.162202 -0.149034 -0.173309 -0.157579 -0.149034 -0.134533 -0.157579 -0.140669 -0.121118 -0.10916 -0.134533 -0.119161 -0.10916 -0.0965338 -0.119161 -0.103361 -0.134533 -0.119161 -0.140669 -0.123077 -0.119161 -0.103361 -0.123077 -0.105281 -0.173309 -0.157579 -0.172845 -0.156076 -0.157579 -0.140669 -0.156076 -0.13828 -0.172845 -0.156076 -0.159647 -0.143557 -0.156076 -0.13828 -0.143557 -0.12658 -0.140669 -0.123077 -0.13828 -0.119962 -0.123077 -0.105281 -0.119962 -0.101603 -0.13828 -0.119962 -0.12658 -0.109193 -0.119962 -0.101603 -0.109193 -0.091851 -0.204875 -0.197495 -0.172099 -0.165913 -0.197495 -0.187139 -0.165913 -0.15714 -0.172099 -0.165913 -0.123438 -0.119335 -0.165913 -0.15714 -0.119335 -0.11323 -0.187139 -0.174347 -0.15714 -0.146253 -0.174347 -0.159647 -0.146253 -0.133719 -0.15714 -0.146253 -0.11323 -0.105486 -0.146253 -0.133719 -0.105486 -0.0964625 -0.123438 -0.119335 -0.0639412 -0.0621519 -0.119335 -0.11323 -0.0621519 -0.059201 -0.0639412 -0.0621519 -1.29423e-14 -3.17885e-14 -0.0621519 -0.059201 -3.17885e-14 -5.23858e-14 -0.11323 -0.105486 -0.059201 -0.0552953 -0.105486 -0.0964625 -0.0552953 -0.0506393 -0.059201 -0.0552953 -5.23858e-14 -8.25389e-14 -0.0552953 -0.0506393 -8.25389e-14 -1.03632e-13 -0.159647 -0.143557 -0.133719 -0.119991 -0.143557 -0.12658 -0.119991 -0.10551 -0.133719 -0.119991 -0.0964625 -0.0865094 -0.119991 -0.10551 -0.0865094 -0.075965 -0.12658 -0.109193 -0.10551 -0.0906941 -0.109193 -0.091851 -0.0906941 -0.0759393 -0.10551 -0.0906941 -0.075965 -0.0651519 -0.0906941 -0.0759393 -0.0651519 -0.0543735 -0.0964625 -0.0865094 -0.0506393 -0.0454333 -0.0865094 -0.075965 -0.0454333 -0.0398706 -0.0506393 -0.0454333 -1.03632e-13 -1.04986e-13 -0.0454333 -0.0398706 -1.04986e-13 -8.0255e-14 -0.075965 -0.0651519 -0.0398706 -0.0341359 -0.0651519 -0.0543735 -0.0341359 -0.0284026 -0.0398706 -0.0341359 -8.0255e-14 -4.84453e-14 -0.0341359 -0.0284026 -4.84453e-14 -2.95672e-14 0 2.56517e-14 0 0.0202139 2.56517e-14 4.4371e-14 0.0202139 0.0362369 0 0.0202139 0 0.0391336 0.0202139 0.0362369 0.0391336 0.0702663 4.4371e-14 5.63511e-14 0.0362369 0.0478259 5.63511e-14 4.90504e-14 0.0478259 0.0561244 0.0362369 0.0478259 0.0702663 0.0938854 0.0478259 0.0561244 0.0938854 0.110558 0 0.0391336 0 0.0553192 0.0391336 0.0702663 0.0553192 0.0991912 0 0.0553192 0 0.061818 0.0553192 0.0991912 0.061818 0.111708 0.0702663 0.0938854 0.0991912 0.13099 0.0938854 0.110558 0.13099 0.153761 0.0991912 0.13099 0.111708 0.150342 0.13099 0.153761 0.150342 0.178503 4.90504e-14 4.21442e-14 0.0561244 0.0614039 4.21442e-14 2.83155e-14 0.0614039 0.0642876 0.0561244 0.0614039 0.110558 0.120203 0.0614039 0.0642876 0.120203 0.125209 2.83155e-14 7.61726e-15 0.0642876 0.0650414 7.61726e-15 -1.29423e-14 0.0650414 0.0639412 0.0642876 0.0650414 0.125209 0.126104 0.0650414 0.0639412 0.126104 0.123438 0.110558 0.120203 0.153761 0.167657 0.120203 0.125209 0.167657 0.174821 0.153761 0.167657 0.178503 0.197064 0.167657 0.174821 0.197064 0.20697 0.125209 0.126104 0.174821 0.176033 0.126104 0.123438 0.176033 0.172099 0.174821 0.176033 0.20697 0.209225 0.176033 0.172099 0.209225 0.204875 0 0.061818 0 0.0684953 0.061818 0.111708 0.0684953 0.123112 0 0.0684953 0 0.0638486 0.0684953 0.123112 0.0638486 0.11535 0.111708 0.150342 0.123112 0.162918 0.150342 0.178503 0.162918 0.191784 0.123112 0.162918 0.11535 0.155214 0.162918 0.191784 0.155214 0.184261 0 0.0638486 0 0.0546536 0.0638486 0.11535 0.0546536 0.0991849 0 0.0546536 0 0.0377209 0.0546536 0.0991849 0.0377209 0.0697022 0.11535 0.155214 0.0991849 0.132427 0.155214 0.184261 0.132427 0.157666 0.0991849 0.132427 0.0697022 0.09619 0.132427 0.157666 0.09619 0.117465 0.178503 0.197064 0.191784 0.2099 0.197064 0.20697 0.2099 0.219858 0.191784 0.2099 0.184261 0.201785 0.2099 0.219858 0.201785 0.212065 0.20697 0.209225 0.219858 0.222549 0.209225 0.204875 0.222549 0.218899 0.219858 0.222549 0.212065 0.215838 0.222549 0.218899 0.215838 0.21387 0.184261 0.201785 0.157666 0.174703 0.201785 0.212065 0.174703 0.185714 0.157666 0.174703 0.117465 0.133837 0.174703 0.185714 0.133837 0.14564 0.212065 0.215838 0.185714 0.191254 0.215838 0.21387 0.191254 0.191901 0.185714 0.191254 0.14564 0.15323 0.191254 0.191901 0.15323 0.156983 -1.29423e-14 -3.17885e-14 0.0639412 0.0621519 -3.17885e-14 -5.23858e-14 0.0621519 0.059201 0.0639412 0.0621519 0.123438 0.119335 0.0621519 0.059201 0.119335 0.11323 -5.23858e-14 -8.25389e-14 0.059201 0.0552953 -8.25389e-14 -1.03632e-13 0.0552953 0.0506393 0.059201 0.0552953 0.11323 0.105486 0.0552953 0.0506393 0.105486 0.0964625 0.123438 0.119335 0.172099 0.165913 0.119335 0.11323 0.165913 0.15714 0.172099 0.165913 0.204875 0.197495 0.165913 0.15714 0.197495 0.187139 0.11323 0.105486 0.15714 0.146253 0.105486 0.0964625 0.146253 0.133719 0.15714 0.146253 0.187139 0.174347 0.146253 0.133719 0.174347 0.159647 -1.03632e-13 -1.04986e-13 0.0506393 0.0454333 -1.04986e-13 -8.0255e-14 0.0454333 0.0398706 0.0506393 0.0454333 0.0964625 0.0865094 0.0454333 0.0398706 0.0865094 0.075965 -8.0255e-14 -4.84453e-14 0.0398706 0.0341359 -4.84453e-14 -2.95672e-14 0.0341359 0.0284026 0.0398706 0.0341359 0.075965 0.0651519 0.0341359 0.0284026 0.0651519 0.0543735 0.0964625 0.0865094 0.133719 0.119991 0.0865094 0.075965 0.119991 0.10551 0.133719 0.119991 0.159647 0.143557 0.119991 0.10551 0.143557 0.12658 0.075965 0.0651519 0.10551 0.0906941 0.0651519 0.0543735 0.0906941 0.0759393 0.10551 0.0906941 0.12658 0.109193 0.0906941 0.0759393 0.109193 0.091851 0.204875 0.197495 0.218899 0.211645 0.197495 0.187139 0.211645 0.201178 0.218899 0.211645 0.21387 0.208163 0.211645 0.201178 0.208163 0.199137 0.187139 0.174347 0.201178 0.18806 0.174347 0.159647 0.18806 0.172845 0.201178 0.18806 0.199137 0.187339 0.18806 0.172845 0.187339 0.173309 0.21387 0.208163 0.191901 0.188904 0.208163 0.199137 0.188904 0.182626 0.191901 0.188904 0.156983 0.157286 0.188904 0.182626 0.157286 0.154538 0.199137 0.187339 0.182626 0.173562 0.187339 0.173309 0.173562 0.162202 0.182626 0.173562 0.154538 0.149141 0.173562 0.162202 0.149141 0.141504 0.159647 0.143557 0.172845 0.156076 0.143557 0.12658 0.156076 0.13828 0.172845 0.156076 0.173309 0.157579 0.156076 0.13828 0.157579 0.140669 0.12658 0.109193 0.13828 0.119962 0.109193 0.091851 0.119962 0.101603 0.13828 0.119962 0.140669 0.123077 0.119962 0.101603 0.123077 0.105281 0.173309 0.157579 0.162202 0.149034 0.157579 0.140669 0.149034 0.134533 0.162202 0.149034 0.141504 0.13203 0.149034 0.134533 0.13203 0.121118 0.140669 0.123077 0.134533 0.119161 0.123077 0.105281 0.119161 0.103361 0.134533 0.119161 0.121118 0.10916 0.119161 0.103361 0.10916 0.0965338 -0.0965338 -0.068563 -0.103361 -0.0782351 -0.068563 -0.0395928 -0.0782351 -0.0518011 -0.103361 -0.0782351 -0.105281 -0.083534 -0.0782351 -0.0518011 -0.083534 -0.0602774 -0.0395928 -0.0107079 -0.0518011 -0.0249591 -0.0107079 0.0167002 -0.0249591 0.0