# vtk DataFile Version 3.0
#This file was generated by the deal.II library on 2016/1/13 at 15:26:35
ASCII
DATASET UNSTRUCTURED_GRID

POINTS 81920 double
-0.707107 -0.707107 0
-0.689541 -0.724247 0
-0.700635 -0.700635 0
-0.68283 -0.717033 0
-0.689541 -0.724247 0
-0.671559 -0.740951 0
-0.68283 -0.717033 0
-0.664818 -0.733213 0
-0.700635 -0.700635 0
-0.68283 -0.717033 0
-0.694163 -0.694163 0
-0.676119 -0.709819 0
-0.68283 -0.717033 0
-0.664818 -0.733213 0
-0.676119 -0.709819 0
-0.658076 -0.725475 0
-0.671559 -0.740951 0
-0.653173 -0.757209 0
-0.664818 -0.733213 0
-0.646401 -0.748947 0
-0.653173 -0.757209 0
-0.634393 -0.77301 0
-0.646401 -0.748947 0
-0.627787 -0.764452 0
-0.664818 -0.733213 0
-0.646401 -0.748947 0
-0.658076 -0.725475 0
-0.639629 -0.740684 0
-0.646401 -0.748947 0
-0.627787 -0.764452 0
-0.639629 -0.740684 0
-0.621181 -0.755894 0
-0.694163 -0.694163 0
-0.676119 -0.709819 0
-0.687691 -0.687691 0
-0.669513 -0.702713 0
-0.676119 -0.709819 0
-0.658076 -0.725475 0
-0.669513 -0.702713 0
-0.651335 -0.717736 0
-0.687691 -0.687691 0
-0.669513 -0.702713 0
-0.681218 -0.681218 0
-0.662906 -0.695608 0
-0.669513 -0.702713 0
-0.651335 -0.717736 0
-0.662906 -0.695608 0
-0.644594 -0.709998 0
-0.658076 -0.725475 0
-0.639629 -0.740684 0
-0.651335 -0.717736 0
-0.632955 -0.732536 0
-0.639629 -0.740684 0
-0.621181 -0.755894 0
-0.632955 -0.732536 0
-0.614575 -0.747336 0
-0.651335 -0.717736 0
-0.632955 -0.732536 0
-0.644594 -0.709998 0
-0.626281 -0.724388 0
-0.632955 -0.732536 0
-0.614575 -0.747336 0
-0.626281 -0.724388 0
-0.607969 -0.738778 0
-0.634393 -0.77301 0
-0.615232 -0.788346 0
-0.627787 -0.764452 0
-0.608601 -0.77926 0
-0.615232 -0.788346 0
-0.595699 -0.803208 0
-0.608601 -0.77926 0
-0.589229 -0.79383 0
-0.627787 -0.764452 0
-0.608601 -0.77926 0
-0.621181 -0.755894 0
-0.60197 -0.770173 0
-0.608601 -0.77926 0
-0.589229 -0.79383 0
-0.60197 -0.770173 0
-0.582758 -0.784452 0
-0.595699 -0.803208 0
-0.575808 -0.817585 0
-0.589229 -0.79383 0
-0.569498 -0.807916 0
-0.575808 -0.817585 0
-0.55557 -0.83147 0
-0.569498 -0.807916 0
-0.549594 -0.821756 0
-0.589229 -0.79383 0
-0.569498 -0.807916 0
-0.582758 -0.784452 0
-0.563188 -0.798247 0
-0.569498 -0.807916 0
-0.549594 -0.821756 0
-0.563188 -0.798247 0
-0.543617 -0.812042 0
-0.621181 -0.755894 0
-0.60197 -0.770173 0
-0.614575 -0.747336 0
-0.595431 -0.761205 0
-0.60197 -0.770173 0
-0.582758 -0.784452 0
-0.595431 -0.761205 0
-0.576287 -0.775074 0
-0.614575 -0.747336 0
-0.595431 -0.761205 0
-0.607969 -0.738778 0
-0.588893 -0.752237 0
-0.595431 -0.761205 0
-0.576287 -0.775074 0
-0.588893 -0.752237 0
-0.569817 -0.765697 0
-0.582758 -0.784452 0
-0.563188 -0.798247 0
-0.576287 -0.775074 0
-0.556964 -0.788702 0
-0.563188 -0.798247 0
-0.543617 -0.812042 0
-0.556964 -0.788702 0
-0.537641 -0.802329 0
-0.576287 -0.775074 0
-0.556964 -0.788702 0
-0.569817 -0.765697 0
-0.550741 -0.779156 0
-0.556964 -0.788702 0
-0.537641 -0.802329 0
-0.550741 -0.779156 0
-0.531665 -0.792615 0
-0.681218 -0.681218 0
-0.662906 -0.695608 0
-0.674746 -0.674746 0
-0.6564 -0.688615 0
-0.662906 -0.695608 0
-0.644594 -0.709998 0
-0.6564 -0.688615 0
-0.638055 -0.702483 0
-0.674746 -0.674746 0
-0.6564 -0.688615 0
-0.668274 -0.668274 0
-0.649895 -0.681621 0
-0.6564 -0.688615 0
-0.638055 -0.702483 0
-0.649895 -0.681621 0
-0.631515 -0.694968 0
-0.644594 -0.709998 0
-0.626281 -0.724388 0
-0.638055 -0.702483 0
-0.619709 -0.716352 0
-0.626281 -0.724388 0
-0.607969 -0.738778 0
-0.619709 -0.716352 0
-0.601363 -0.73022 0
-0.638055 -0.702483 0
-0.619709 -0.716352 0
-0.631515 -0.694968 0
-0.613136 -0.708315 0
-0.619709 -0.716352 0
-0.601363 -0.73022 0
-0.613136 -0.708315 0
-0.594757 -0.721662 0
-0.668274 -0.668274 0
-0.649895 -0.681621 0
-0.661802 -0.661802 0
-0.643389 -0.674628 0
-0.649895 -0.681621 0
-0.631515 -0.694968 0
-0.643389 -0.674628 0
-0.624976 -0.687453 0
-0.661802 -0.661802 0
-0.643389 -0.674628 0
-0.65533 -0.65533 0
-0.636884 -0.667634 0
-0.643389 -0.674628 0
-0.624976 -0.687453 0
-0.636884 -0.667634 0
-0.618437 -0.679938 0
-0.631515 -0.694968 0
-0.613136 -0.708315 0
-0.624976 -0.687453 0
-0.606563 -0.700278 0
-0.613136 -0.708315 0
-0.594757 -0.721662 0
-0.606563 -0.700278 0
-0.588151 -0.713104 0
-0.624976 -0.687453 0
-0.606563 -0.700278 0
-0.618437 -0.679938 0
-0.599991 -0.692242 0
-0.606563 -0.700278 0
-0.588151 -0.713104 0
-0.599991 -0.692242 0
-0.581544 -0.704546 0
-0.607969 -0.738778 0
-0.588893 -0.752237 0
-0.601363 -0.73022 0
-0.582444 -0.74339 0
-0.588893 -0.752237 0
-0.569817 -0.765697 0
-0.582444 -0.74339 0
-0.563525 -0.756561 0
-0.601363 -0.73022 0
-0.582444 -0.74339 0
-0.594757 -0.721662 0
-0.575995 -0.734543 0
-0.582444 -0.74339 0
-0.563525 -0.756561 0
-0.575995 -0.734543 0
-0.557234 -0.747425 0
-0.569817 -0.765697 0
-0.550741 -0.779156 0
-0.563525 -0.756561 0
-0.544607 -0.769731 0
-0.550741 -0.779156 0
-0.531665 -0.792615 0
-0.544607 -0.769731 0
-0.525688 -0.782902 0
-0.563525 -0.756561 0
-0.544607 -0.769731 0
-0.557234 -0.747425 0
-0.538473 -0.760307 0
-0.544607 -0.769731 0
-0.525688 -0.782902 0
-0.538473 -0.760307 0
-0.519712 -0.773188 0
-0.594757 -0.721662 0
-0.575995 -0.734543 0
-0.588151 -0.713104 0
-0.569547 -0.725696 0
-0.575995 -0.734543 0
-0.557234 -0.747425 0
-0.569547 -0.725696 0
-0.550943 -0.738289 0
-0.588151 -0.713104 0
-0.569547 -0.725696 0
-0.581544 -0.704546 0
-0.563098 -0.716849 0
-0.569547 -0.725696 0
-0.550943 -0.738289 0
-0.563098 -0.716849 0
-0.544652 -0.729153 0
-0.557234 -0.747425 0
-0.538473 -0.760307 0
-0.550943 -0.738289 0
-0.532339 -0.750882 0
-0.538473 -0.760307 0
-0.519712 -0.773188 0
-0.532339 -0.750882 0
-0.513735 -0.763475 0
-0.550943 -0.738289 0
-0.532339 -0.750882 0
-0.544652 -0.729153 0
-0.526205 -0.741457 0
-0.532339 -0.750882 0
-0.513735 -0.763475 0
-0.526205 -0.741457 0
-0.507759 -0.753761 0
-0.55557 -0.83147 0
-0.534998 -0.844854 0
-0.549594 -0.821756 0
-0.529021 -0.834595 0
-0.534998 -0.844854 0
-0.514103 -0.857729 0
-0.529021 -0.834595 0
-0.508287 -0.84718 0
-0.549594 -0.821756 0
-0.529021 -0.834595 0
-0.543617 -0.812042 0
-0.523044 -0.824337 0
-0.529021 -0.834595 0
-0.508287 -0.84718 0
-0.523044 -0.824337 0
-0.502472 -0.836632 0
-0.514103 -0.857729 0
-0.492898 -0.870087 0
-0.508287 -0.84718 0
-0.487244 -0.859248 0
-0.492898 -0.870087 0
-0.471397 -0.881921 0
-0.487244 -0.859248 0
-0.466052 -0.871055 0
-0.508287 -0.84718 0
-0.487244 -0.859248 0
-0.502472 -0.836632 0
-0.481589 -0.84841 0
-0.487244 -0.859248 0
-0.466052 -0.871055 0
-0.481589 -0.84841 0
-0.460706 -0.860188 0
-0.543617 -0.812042 0
-0.523044 -0.824337 0
-0.537641 -0.802329 0
-0.517148 -0.814206 0
-0.523044 -0.824337 0
-0.502472 -0.836632 0
-0.517148 -0.814206 0
-0.496656 -0.826083 0
-0.537641 -0.802329 0
-0.517148 -0.814206 0
-0.531665 -0.792615 0
-0.511252 -0.804075 0
-0.517148 -0.814206 0
-0.496656 -0.826083 0
-0.511252 -0.804075 0
-0.49084 -0.815535 0
-0.502472 -0.836632 0
-0.481589 -0.84841 0
-0.496656 -0.826083 0
-0.476009 -0.837702 0
-0.481589 -0.84841 0
-0.460706 -0.860188 0
-0.476009 -0.837702 0
-0.455361 -0.849321 0
-0.496656 -0.826083 0
-0.476009 -0.837702 0
-0.49084 -0.815535 0
-0.470428 -0.826995 0
-0.476009 -0.837702 0
-0.455361 -0.849321 0
-0.470428 -0.826995 0
-0.450016 -0.838455 0
-0.471397 -0.881921 0
-0.449611 -0.893224 0
-0.466052 -0.871055 0
-0.444434 -0.882064 0
-0.449611 -0.893224 0
-0.427555 -0.903989 0
-0.444434 -0.882064 0
-0.422681 -0.892805 0
-0.466052 -0.871055 0
-0.444434 -0.882064 0
-0.460706 -0.860188 0
-0.439256 -0.870904 0
-0.444434 -0.882064 0
-0.422681 -0.892805 0
-0.439256 -0.870904 0
-0.417806 -0.88162 0
-0.427555 -0.903989 0
-0.405241 -0.91421 0
-0.422681 -0.892805 0
-0.40067 -0.903001 0
-0.405241 -0.91421 0
-0.382683 -0.92388 0
-0.40067 -0.903001 0
-0.378537 -0.912922 0
-0.422681 -0.892805 0
-0.40067 -0.903001 0
-0.417806 -0.88162 0
-0.396098 -0.891792 0
-0.40067 -0.903001 0
-0.378537 -0.912922 0
-0.396098 -0.891792 0
-0.374391 -0.901964 0
-0.460706 -0.860188 0
-0.439256 -0.870904 0
-0.455361 -0.849321 0
-0.434146 -0.859879 0
-0.439256 -0.870904 0
-0.417806 -0.88162 0
-0.434146 -0.859879 0
-0.412932 -0.870436 0
-0.455361 -0.849321 0
-0.434146 -0.859879 0
-0.450016 -0.838455 0
-0.429037 -0.848853 0
-0.434146 -0.859879 0
-0.412932 -0.870436 0
-0.429037 -0.848853 0
-0.408057 -0.859251 0
-0.417806 -0.88162 0
-0.396098 -0.891792 0
-0.412932 -0.870436 0
-0.391588 -0.880721 0
-0.396098 -0.891792 0
-0.374391 -0.901964 0
-0.391588 -0.880721 0
-0.370244 -0.891006 0
-0.412932 -0.870436 0
-0.391588 -0.880721 0
-0.408057 -0.859251 0
-0.387078 -0.869649 0
-0.391588 -0.880721 0
-0.370244 -0.891006 0
-0.387078 -0.869649 0
-0.366098 -0.880048 0
-0.531665 -0.792615 0
-0.511252 -0.804075 0
-0.525688 -0.782902 0
-0.505434 -0.794073 0
-0.511252 -0.804075 0
-0.49084 -0.815535 0
-0.505434 -0.794073 0
-0.48518 -0.805245 0
-0.525688 -0.782902 0
-0.505434 -0.794073 0
-0.519712 -0.773188 0
-0.499615 -0.784071 0
-0.505434 -0.794073 0
-0.48518 -0.805245 0
-0.499615 -0.784071 0
-0.479519 -0.794955 0
-0.49084 -0.815535 0
-0.470428 -0.826995 0
-0.48518 -0.805245 0
-0.464925 -0.816417 0
-0.470428 -0.826995 0
-0.450016 -0.838455 0
-0.464925 -0.816417 0
-0.444671 -0.827588 0
-0.48518 -0.805245 0
-0.464925 -0.816417 0
-0.479519 -0.794955 0
-0.459422 -0.805838 0
-0.464925 -0.816417 0
-0.444671 -0.827588 0
-0.459422 -0.805838 0
-0.439326 -0.816721 0
-0.519712 -0.773188 0
-0.499615 -0.784071 0
-0.513735 -0.763475 0
-0.493797 -0.77407 0
-0.499615 -0.784071 0
-0.479519 -0.794955 0
-0.493797 -0.77407 0
-0.473858 -0.784665 0
-0.513735 -0.763475 0
-0.493797 -0.77407 0
-0.507759 -0.753761 0
-0.487978 -0.764068 0
-0.493797 -0.77407 0
-0.473858 -0.784665 0
-0.487978 -0.764068 0
-0.468197 -0.774375 0
-0.479519 -0.794955 0
-0.459422 -0.805838 0
-0.473858 -0.784665 0
-0.453919 -0.79526 0
-0.459422 -0.805838 0
-0.439326 -0.816721 0
-0.453919 -0.79526 0
-0.433981 -0.805855 0
-0.473858 -0.784665 0
-0.453919 -0.79526 0
-0.468197 -0.774375 0
-0.448417 -0.784681 0
-0.453919 -0.79526 0
-0.433981 -0.805855 0
-0.448417 -0.784681 0
-0.428636 -0.794988 0
-0.450016 -0.838455 0
-0.429037 -0.848853 0
-0.444671 -0.827588 0
[...]
POINT_DATA 81920
SCALARS solution double 1
LOOKUP_TABLE default
0 0 -0.00998073 -0.00991362 0 0 -0.00991362 -0.0094126 -0.00998073 -0.00991362 -0.0195924 -0.0194403 -0.00991362 -0.0094126 -0.0194403 -0.01845 0 0 -0.0094126 -0.00879498 0 0 -0.00879498 -0.00784368 -0.0094126 -0.00879498 -0.01845 -0.0172324 -0.00879498 -0.00784368 -0.0172324 -0.0153728 -0.0195924 -0.0194403 -0.0288381 -0.0284467 -0.0194403 -0.01845 -0.0284467 -0.0271154 -0.0288381 -0.0284467 -0.0377214 -0.0370849 -0.0284467 -0.0271154 -0.0370849 -0.0354126 -0.01845 -0.0172324 -0.0271154 -0.0252042 -0.0172324 -0.0153728 -0.0252042 -0.0225901 -0.0271154 -0.0252042 -0.0354126 -0.0328351 -0.0252042 -0.0225901 -0.0328351 -0.0294982 0 0 -0.00784368 -0.00701371 0 0 -0.00701371 -0.00590836 -0.00784368 -0.00701371 -0.0153728 -0.0137427 -0.00701371 -0.00590836 -0.0137427 -0.011583 0 0 -0.00590836 -0.00474402 0 0 -0.00474402 -0.00343542 -0.00590836 -0.00474402 -0.011583 -0.00930848 -0.00474402 -0.00343542 -0.00930848 -0.00675669 -0.0153728 -0.0137427 -0.0225901 -0.0201055 -0.0137427 -0.011583 -0.0201055 -0.0170255 -0.0225901 -0.0201055 -0.0294982 -0.0261961 -0.0201055 -0.0170255 -0.0261961 -0.0222376 -0.011583 -0.00930848 -0.0170255 -0.013639 -0.00930848 -0.00675669 -0.013639 -0.00996396 -0.0170255 -0.013639 -0.0222376 -0.0177972 -0.013639 -0.00996396 -0.0177972 -0.0130575 -0.0377214 -0.0370849 -0.0462457 -0.0452327 -0.0370849 -0.0354126 -0.0452327 -0.0431186 -0.0462457 -0.0452327 -0.0544147 -0.0530307 -0.0452327 -0.0431186 -0.0530307 -0.0504851 -0.0354126 -0.0328351 -0.0431186 -0.040028 -0.0328351 -0.0294982 -0.040028 -0.0361002 -0.0431186 -0.040028 -0.0504851 -0.0468968 -0.040028 -0.0361002 -0.0468968 -0.0423991 -0.0544147 -0.0530307 -0.0622322 -0.0604827 -0.0530307 -0.0504851 -0.0604827 -0.0575158 -0.0622322 -0.0604827 -0.0697022 -0.0675926 -0.0604827 -0.0575158 -0.0675926 -0.0642146 -0.0504851 -0.0468968 -0.0575158 -0.0534451 -0.0468968 -0.0423991 -0.0534451 -0.0483983 -0.0575158 -0.0534451 -0.0642146 -0.0596766 -0.0534451 -0.0483983 -0.0596766 -0.0541012 -0.0294982 -0.0261961 -0.0361002 -0.0319401 -0.0261961 -0.0222376 -0.0319401 -0.0270949 -0.0361002 -0.0319401 -0.0423991 -0.0374243 -0.0319401 -0.0270949 -0.0374243 -0.0317384 -0.0222376 -0.0177972 -0.0270949 -0.0217346 -0.0177972 -0.0130575 -0.0217346 -0.0160375 -0.0270949 -0.0217346 -0.0317384 -0.0255071 -0.0217346 -0.0160375 -0.0255071 -0.0189044 -0.0423991 -0.0374243 -0.0483983 -0.0426513 -0.0374243 -0.0317384 -0.0426513 -0.0361701 -0.0483983 -0.0426513 -0.0541012 -0.047624 -0.0426513 -0.0361701 -0.047624 -0.0403921 -0.0317384 -0.0255071 -0.0361701 -0.0291161 -0.0255071 -0.0189044 -0.0291161 -0.0216587 -0.0361701 -0.0291161 -0.0403921 -0.0325627 -0.0291161 -0.0216587 -0.0325627 -0.0243009 0 0 -0.00343542 -0.00225136 0 0 -0.00225136 -0.000929862 -0.00343542 -0.00225136 -0.00675669 -0.00444254 -0.00225136 -0.000929862 -0.00444254 -0.00186299 0 0 -0.000929862 0.000435501 0 0 0.000435501 0.0017956 -0.000929862 0.000435501 -0.00186299 0.000801424 0.000435501 0.0017956 0.000801424 0.00345729 -0.00675669 -0.00444254 -0.00996396 -0.00654721 -0.00444254 -0.00186299 -0.00654721 -0.00279808 -0.00996396 -0.00654721 -0.0130575 -0.00859276 -0.00654721 -0.00279808 -0.00859276 -0.0037338 -0.00186299 0.000801424 -0.00279808 0.00109573 0.000801424 0.00345729 0.00109573 0.00498785 -0.00279808 0.00109573 -0.0037338 0.00132576 0.00109573 0.00498785 0.00132576 0.00639016 0 0 0.0017956 0.00319904 0 0 0.00319904 0.00452061 0.0017956 0.00319904 0.00345729 0.00619425 0.00319904 0.00452061 0.00619425 0.00877635 0 0 0.00452061 0.00579876 0 0 0.00579876 0.00685685 0.00452061 0.00579876 0.00877635 0.0112742 0.00579876 0.00685685 0.0112742 0.0133517 0.00345729 0.00619425 0.00498785 0.00895544 0.00619425 0.00877635 0.00895544 0.0127715 0.00498785 0.00895544 0.00639016 0.0115244 0.00895544 0.0127715 0.0115244 0.0165104 0.00877635 0.0112742 0.0127715 0.0163683 0.0112742 0.0133517 0.0163683 0.0194897 0.0127715 0.0163683 0.0165104 0.0211562 0.0163683 0.0194897 0.0211562 0.025276 -0.0130575 -0.00859276 -0.0160375 -0.0105541 -0.00859276 -0.0037338 -0.0105541 -0.00464836 -0.0160375 -0.0105541 -0.0189044 -0.0124571 -0.0105541 -0.00464836 -0.0124571 -0.0055621 -0.0037338 0.00132576 -0.00464836 0.00148952 0.00132576 0.00639016 0.00148952 0.00766718 -0.00464836 0.00148952 -0.0055621 0.00159391 0.00148952 0.00766718 0.00159391 0.00882197 -0.0189044 -0.0124571 -0.0216587 -0.0143014 -0.0124571 -0.0055621 -0.0143014 -0.00647378 -0.0216587 -0.0143014 -0.0243009 -0.0160866 -0.0143014 -0.00647378 -0.0160866 -0.00738212 -0.0055621 0.00159391 -0.00647378 0.0016411 0.00159391 0.00882197 0.0016411 0.00985765 -0.00647378 0.0016411 -0.00738212 0.0016333 0.0016411 0.00985765 0.0016333 0.0107774 0.00639016 0.0115244 0.00766718 0.0138764 0.0115244 0.0165104 0.0138764 0.0199122 0.00766718 0.0138764 0.00882197 0.0160482 0.0138764 0.0199122 0.0160482 0.0230783 0.0165104 0.0211562 0.0199122 0.0255863 0.0211562 0.025276 0.0255863 0.0307162 0.0199122 0.0255863 0.0230783 0.0297272 0.0255863 0.0307162 0.0297272 0.0358161 0.00882197 0.0160482 0.00985765 0.0180439 0.0160482 0.0230783 0.0180439 0.0260132 0.00985765 0.0180439 0.0107774 0.0198674 0.0180439 0.0260132 0.0198674 0.0287219 0.0230783 0.0297272 0.0260132 0.0335843 0.0297272 0.0358161 0.0335843 0.0405815 0.0260132 0.0335843 0.0287219 0.037163 0.0335843 0.0405815 0.037163 0.0450187 -0.0697022 -0.0675926 -0.0768287 -0.0742582 -0.0675926 -0.0642146 -0.0742582 -0.0703954 -0.0768287 -0.0742582 -0.0836159 -0.0806 -0.0742582 -0.0703954 -0.0806 -0.076271 -0.0642146 -0.0596766 -0.0703954 -0.0653445 -0.0596766 -0.0541012 -0.0653445 -0.0592241 -0.0703954 -0.0653445 -0.076271 -0.0707297 -0.0653445 -0.0592241 -0.0707297 -0.0640904 -0.0836159 -0.0806 -0.0900682 -0.086622 -0.0806 -0.076271 -0.086622 -0.0818455 -0.0900682 -0.086622 -0.09619 -0.0923287 -0.086622 -0.0818455 -0.0923287 -0.0871229 -0.076271 -0.0707297 -0.0818455 -0.0758357 -0.0707297 -0.0640904 -0.0758357 -0.0687033 -0.0818455 -0.0758357 -0.0871229 -0.0806664 -0.0758357 -0.0687033 -0.0806664 -0.073066 -0.0541012 -0.047624 -0.0592241 -0.0521653 -0.047624 -0.0403921 -0.0521653 -0.0443105 -0.0592241 -0.0521653 -0.0640904 -0.05648 -0.0521653 -0.0443105 -0.05648 -0.0480366 -0.0403921 -0.0325627 -0.0443105 -0.0358124 -0.0325627 -0.0243009 -0.0358124 -0.0268314 -0.0443105 -0.0358124 -0.0480366 -0.0389082 -0.0358124 -0.0268314 -0.0389082 -0.029251 -0.0640904 -0.05648 -0.0687033 -0.0605708 -0.05648 -0.0480366 -0.0605708 -0.0515723 -0.0687033 -0.0605708 -0.073066 -0.0644406 -0.0605708 -0.0515723 -0.0644406 -0.05492 -0.0480366 -0.0389082 -0.0515723 -0.0418515 -0.0389082 -0.029251 -0.0418515 -0.0315604 -0.0515723 -0.0418515 -0.05492 -0.044644 -0.0418515 -0.0315604 -0.044644 -0.0337603 -0.09619 -0.0923287 -0.101986 -0.0977243 -0.0923287 -0.0871229 -0.0977243 -0.0921074 -0.101986 -0.0977243 -0.10746 -0.102814 -0.0977243 -0.0921074 -0.102814 -0.0968032 -0.0871229 -0.0806664 -0.0921074 -0.0852255 -0.0806664 -0.073066 -0.0852255 -0.0771821 -0.0921074 -0.0852255 -0.0968032 -0.089517 -0.0852255 -0.0771821 -0.089517 -0.081055 -0.10746 -0.102814 -0.112618 -0.107601 -0.102814 -0.0968032 -0.107601 -0.101215 -0.112618 -0.107601 -0.117465 -0.112091 -0.107601 -0.101215 -0.112091 -0.105347 -0.0968032 -0.089517 -0.101215 -0.0935451 -0.089517 -0.081055 -0.0935451 -0.0846885 -0.101215 -0.0935451 -0.105347 -0.0973138 -0.0935451 -0.0846885 -0.0973138 -0.0880863 -0.073066 -0.0644406 -0.0771821 -0.0680922 -0.0644406 -0.05492 -0.0680922 -0.058082 -0.0771821 -0.0680922 -0.081055 -0.0715288 -0.0680922 -0.058082 -0.0715288 -0.0610608 -0.05492 -0.044644 -0.058082 -0.0472871 -0.044644 -0.0337603 -0.0472871 -0.0358516 -0.058082 -0.0472871 -0.0610608 -0.0497827 -0.0472871 -0.0358516 -0.0497827 -0.037835 -0.081055 -0.0715288 -0.0846885 -0.0747534 -0.0715288 -0.0610608 -0.0747534 -0.0638587 -0.0846885 -0.0747534 -0.0880863 -0.0777693 -0.0747534 -0.0638587 -0.0777693 -0.0664784 -0.0610608 -0.0497827 -0.0638587 -0.0521326 -0.0497827 -0.037835 -0.0521326 -0.0397117 -0.0638587 -0.0521326 -0.0664784 -0.0543384 -0.0521326 -0.0397117 -0.0543384 -0.0414825 -0.0243009 -0.0160866 -0.0268314 -0.0177882 -0.0160866 -0.00738212 -0.0177882 -0.00826119 -0.0268314 -0.0177882 -0.029251 -0.0194312 -0.0177882 -0.00826119 -0.0194312 -0.00913447 -0.00738212 0.0016333 -0.00826119 0.00157369 0.0016333 0.0107774 0.00157369 0.0115379 -0.00826119 0.00157369 -0.00913447 0.00146686 0.00157369 0.0115379 0.00146686 0.0121978 -0.029251 -0.0194312 -0.0315604 -0.0210154 -0.0194312 -0.00913447 -0.0210154 -0.0100008 -0.0315604 -0.0210154 -0.0337603 -0.0225408 -0.0210154 -0.0100008 -0.0225408 -0.0108591 -0.00913447 0.00146686 -0.0100008 0.00131486 0.00146686 0.0121978 0.00131486 0.0127603 -0.0100008 0.00131486 -0.0108591 0.00111979 0.00131486 0.0127603 0.00111979 0.0132283 0.0107774 0.0198674 0.0115379 0.0214521 0.0198674 0.0287219 0.0214521 0.0311382 0.0115379 0.0214521 0.0121978 0.0228827 0.0214521 0.0311382 0.0228827 0.0333469 0.0287219 0.037163 0.0311382 0.0404219 0.037163 0.0450187 0.0404219 0.0491339 0.0311382 0.0404219 0.0333469 0.0434193 0.0404219 0.0491339 0.0434193 0.0529337 0.0121978 0.0228827 0.0127603 0.0241633 0.0228827 0.0333469 0.0241633 0.0353528 0.0127603 0.0241633 0.0132283 0.0252978 0.0241633 0.0353528 0.0252978 0.0371609 0.0333469 0.0434193 0.0353528 0.046161 0.0434193 0.0529337 0.046161 0.0564249 0.0353528 0.046161 0.0371609 0.0486529 0.046161 0.0564249 0.0486529 0.0596142 -0.0337603 -0.0225408 -0.0358516 -0.0240071 -0.0225408 -0.0108591 -0.0240071 -0.0117083 -0.0358516 -0.0240071 -0.037835 -0.0254143 -0.0240071 -0.0117083 -0.0254143 -0.0125471 -0.0108591 0.00111979 -0.0117083 0.000883737 0.00111979 0.0132283 0.000883737 0.0136049 -0.0117083 0.000883737 -0.0125471 0.00060883 0.000883737 0.0136049 0.00060883 0.0138934 -0.037835 -0.0254143 -0.0397117 -0.0267623 -0.0254143 -0.0125471 -0.0267623 -0.0133747 -0.0397117 -0.0267623 -0.0414825 -0.028051 -0.0267623 -0.0133747 -0.028051 -0.0141897 -0.0125471 0.00060883 -0.0133747 0.000297203 0.00060883 0.0138934 0.000297203 0.0140968 -0.0133747 0.000297203 -0.0141897 -4.90002e-05 0.000297203 0.0140968 -4.90002e-05 0.0142184 0.0132283 0.0252978 0.0136049 0.0262904 0.0252978 0.0371609 0.0262904 0.0387762 0.0136049 0.0262904 0.0138934 0.0271452 0.0262904 0.0387762 0.0271452 0.040204 0.0371609 0.0486529 0.0387762 0.0509012 0.0486529 0.0596142 0.0509012 0.0625088 0.0387762 0.0509012 0.040204 0.052912 0.0509012 0.0625088 0.052912 0.0651158 0.0138934 0.0271452 0.0140968 0.0278665 0.0271452 0.040204 0.0278665 0.0414496 0.0140968 0.0278665 0.0142184 0.0284585 0.0278665 0.0414496 0.0284585 0.0425182 0.040204 0.052912 0.0414496 0.0546917 0.052912 0.0651158 0.0546917 0.0674427 0.0414496 0.0546917 0.0425182 0.0562466 0.0546917 0.0674427 0.0562466 0.0694968 0 0 0.00685685 0.00840664 0 0 0.00840664 0.00978702 0.00685685 0.00840664 0.0133517 0.0163599 0.00840664 0.00978702 0.0163599 0.0190463 0 0 0.00978702 0.0111618 0 0 0.0111618 0.0122379 0.00978702 0.0111618 0.0190463 0.0217201 0.0111618 0.0122379 0.0217201 0.0238253 0.0133517 0.0163599 0.0194897 0.0237759 0.0163599 0.0190463 0.0237759 0.0277851 0.0194897 0.0237759 0.025276 0.0307619 0.0237759 0.0277851 0.0307619 0.0360113 0.0190463 0.0217201 0.0277851 0.0315677 0.0217201 0.0238253 0.0315677 0.034771 0.0277851 0.0315677 0.0360113 0.0408424 0.0315677 0.034771 0.0408424 0.0450842 0 0 0.0122379 0.0135514 0 0 0.0135514 0.0145032 0.0122379 0.0135514 0.0238253 0.0263764 0.0135514 0.0145032 0.0263764 0.0282388 0 0 0.0145032 0.0153742 0 0 0.0153742 0.015788 0.0145032 0.0153742 0.0282388 0.0299432 0.0153742 0.015788 0.0299432 0.0307752 0.0238253 0.0263764 0.034771 0.0383467 0.0263764 0.0282388 0.0383467 0.0412169 0.034771 0.0383467 0.0450842 0.0496267 0.0383467 0.0412169 0.0496267 0.0534482 0.0282388 0.0299432 0.0412169 0.043559 0.0299432 0.0307752 0.043559 0.0449714 0.0412169 0.043559 0.0534482 0.0564091 0.043559 0.0449714 0.0564091 0.0583872 0.025276 0.0307619 0.0307162 0.0372453 0.0307619 0.0360113 0.0372453 0.0435501 0.0307162 0.0372453 0.0358161 0.0433227 0.0372453 0.0435501 0.0433227 0.0506156 0.0360113 0.0408424 0.0435501 0.04945 0.0408424 0.0450842 0.04945 0.0547746 0.0435501 0.04945 0.0506156 0.0575154 0.04945 0.0547746 0.0575154 0.0638523 0.0358161 0.0433227 0.0405815 0.0490012 0.0433227 0.0506156 0.0490012 0.0572161 0.0405815 0.0490012 0.0450187 0.0542882 0.0490012 0.0572161 0.0542882 0.06336 0.0506156 0.0575154 0.0572161 0.0650479 0.0575154 0.0638523 0.0650479 0.0723279 0.0572161 0.0650479 0.06336 0.0720574 0.0650479 0.0723279 0.0720574 0.0802125 0.0450842 0.0496267 0.0547746 0.0601055 0.0496267 0.0534482 0.0601055 0.0646809 0.0547746 0.0601055 0.0638523 0.0699313 0.0601055 0.0646809 0.0699313 0.075223 0.0534482 0.0564091 0.0646809 0.0683636 0.0564091 0.0583872 0.0683636 0.0710338 0.0646809 0.0683636 0.075223 0.0795927 0.0683636 0.0710338 0.0795927 0.0829228 0.0638523 0.0699313 0.0723279 0.0791152 0.0699313 0.075223 0.0791152 0.0850859 0.0723279 0.0791152 0.0802125 0.0876686 0.0791152 0.0850859 0.0876686 0.0942817 0.075223 0.0795927 0.0850859 0.0901081 0.0795927 0.0829228 0.0901081 0.0940662 0.0850859 0.0901081 0.0942817 0.0999222 0.0901081 0.0940662 0.0999222 0.104477 0 0 0.015788 0.0168622 0 0 0.0168622 0.0174749 0.015788 0.0168622 0.0307752 0.0328538 0.0168622 0.0174749 0.0328538 0.0340526 0 0 0.0174749 0.0179976 0 0 0.0179976 0.0179985 0.0174749 0.0179976 0.0340526 0.0350752 0.0179976 0.0179985 0.0350752 0.0351018 0.0307752 0.0328538 0.0449714 0.0478107 0.0328538 0.0340526 0.0478107 0.0497444 0.0449714 0.0478107 0.0583872 0.0619395 0.0478107 0.0497444 0.0619395 0.0645621 0.0340526 0.0350752 0.0497444 0.0510562 0.0350752 0.0351018 0.0510562 0.0513206 0.0497444 0.0510562 0.0645621 0.0661618 0.0510562 0.0513206 0.0661618 0.0666663 0 0 0.0179985 0.0183287 0 0 0.0183287 0.0181231 0.0179985 0.0183287 0.0351018 0.0357473 0.0183287 0.0181231 0.0357473 0.0353692 0 0 0.0181231 0.0178191 0 0 0.0178191 0.0169728 0.0181231 0.0178191 0.0353692 0.0347978 0.0178191 0.0169728 0.0347978 0.0331863 0.0351018 0.0357473 0.0513206 0.0520691 0.0357473 0.0353692 0.0520691 0.0517486 0.0513206 0.0520691 0.0666663 0.0675248 0.0520691 0.0517486 0.0675248 0.0672721 0.0353692 0.0347978 0.0517486 0.050742 0.0347978 0.0331863 0.050742 0.0486488 0.0517486 0.050742 0.0672721 0.0658864 0.050742 0.0486488 0.0658864 0.0633688 0.0583872 0.0619395 0.0710338 0.0750971 0.0619395 0.0645621 0.0750971 0.0781953 0.0710338 0.0750971 0.0829228 0.0874701 0.0750971 0.0781953 0.0874701 0.0910197 0.0645621 0.0661618 0.0781953 0.0802368 0.0661618 0.0666663 0.0802368 0.0811511 0.0781953 0.0802368 0.0910197 0.0934819 0.0802368 0.0811511 0.0934819 0.0947874 0.0829228 0.0874701 0.0940662 0.0990711 0.0874701 0.0910197 0.0990711 0.103048 0.0940662 0.0990711 0.104477 0.109913 0.0990711 0.103048 0.109913 0.114294 0.0910197 0.0934819 0.103048 0.10591 0.0934819 0.0947874 0.10591 0.107589 0.103048 0.10591 0.114294 0.117535 0.10591 0.107589 0.117535 0.119569 0.0666663 0.0675248 0.0811511 0.0819501 0.0675248 0.0672721 0.0819501 0.0815915 0.0811511 0.0819501 0.0947874 0.095554 0.0819501 0.0815915 0.095554 0.0951196 0.0672721 0.0658864 0.0815915 0.0800582 0.0658864 0.0633688 0.0800582 0.0773553 0.0815915 0.0800582 0.0951196 0.0934712 0.0800582 0.0773553 0.0934712 0.0906179 0.0947874 0.095554 0.107589 0.108349 0.095554 0.0951196 0.108349 0.107868 0.107589 0.108349 0.119569 0.120348 0.108349 0.107868 0.120348 0.119849 0.0951196 0.0934712 0.107868 0.106136 0.0934712 0.0906179 0.106136 0.103166 0.107868 0.106136 0.119849 0.118064 0.106136 0.103166 0.118064 0.115011 0.0450187 0.0542882 0.0491339 0.0591344 0.0542882 0.06336 0.0591344 0.0689231 0.0491339 0.0591344 0.0529337 0.0636142 0.0591344 0.0689231 0.0636142 0.0740692 0.06336 0.0720574 0.0689231 0.0783258 0.0720574 0.0802125 0.0783258 0.0871771 0.0689231 0.0783258 0.0740692 0.0841272 0.0783258 0.0871771 0.0841272 0.0936253 0.0529337 0.0636142 0.0564249 0.0677353 0.0636142 0.0740692 0.0677353 0.078807 0.0564249 0.0677353 0.0596142 0.0715055 0.0677353 0.078807 0.0715055 0.0831453 0.0740692 0.0841272 0.078807 0.0894713 0.0841272 0.0936253 0.0894713 0.0995678 0.078807 0.0894713 0.0831453 0.0943679 0.0894713 0.0995678 0.0943679 0.105015 0.0802125 0.0876686 0.0871771 0.0953222 0.0876686 0.0942817 0.0953222 0.102619 0.0871771 0.0953222 0.0936253 0.102411 0.0953222 0.102619 0.102411 0.110343 0.0942817 0.0999222 0.102619 0.108938 0.0999222 0.104477 0.108938 0.114168 0.102619 0.108938 0.110343 0.117294 0.108938 0.114168 0.117294 0.123153 0.0936253 0.102411 0.0995678 0.108946 0.102411 0.110343 0.108946 0.117466 0.0995678 0.108946 0.105015 0.114939 0.108946 0.117466 0.114939 0.124002 0.110343 0.117294 0.117466 0.125004 0.117294 0.123153 0.125004 0.131447 0.117466 0.125004 0.124002 0.13208 0.125004 0.131447 0.13208 0.139062 0.0596142 0.0715055 0.0625088 0.0749329 0.0715055 0.0831453 0.0749329 0.0870932 0.0625088 0.0749329 0.0651158 0.0780257 0.0749329 0.0870932 0.0780257 0.0906601 0.0831453 0.0943679 0.0870932 0.0988271 0.0943679 0.105015 0.0988271 0.109979 0.0870932 0.0988271 0.0906601 0.102859 0.0988271 0.109979 0.102859 0.11447 0.0651158 0.0780257 0.0674427 0.0807923 0.0780257 0.0906601 0.0807923 0.0938554 0.0674427 0.0807923 0.0694968 0.0832415 0.0807923 0.0938554 0.0832415 0.0966888 0.0906601 0.102859 0.0938554 0.106475 0.102859 0.11447 0.106475 0.118501 0.0938554 0.106475 0.0966888 0.109685 0.106475 0.118501 0.109685 0.122082 0.105015 0.114939 0.109979 0.120403 0.114939 0.124002 0.120403 0.129963 0.109979 0.120403 0.11447 0.12535 0.120403 0.129963 0.12535 0.135363 0.124002 0.13208 0.129963 0.138537 0.13208 0.139062 0.138537 0.146016 0.129963 0.138537 0.135363 0.14439 0.138537 0.146016 0.14439 0.152322 0.11447 0.12535 0.118501 0.129792 0.12535 0.135363 0.129792 0.140216 0.118501 0.129792 0.122082 0.133742 0.129792 0.140216 0.133742 0.144534 0.135363 0.14439 0.140216 0.149653 0.14439 0.152322 0.149653 0.157997 0.140216 0.149653 0.144534 0.154341 0.149653 0.157997 0.154341 0.163057 0.104477 0.109913 0.114168 0.119894 0.109913 0.114294 0.119894 0.124528 0.114168 0.119894 0.123153 0.129161 0.119894 0.124528 0.129161 0.134044 0.114294 0.117535 0.124528 0.127989 0.117535 0.119569 0.127989 0.130212 0.124528 0.127989 0.134044 0.137723 0.127989 0.130212 0.137723 0.140139 0.123153 0.129161 0.131447 0.137729 0.129161 0.134044 0.137729 0.142856 0.131447 0.137729 0.139062 0.145611 0.137729 0.142856 0.145611 0.150978 0.134044 0.137723 0.142856 0.146753 0.137723 0.140139 0.146753 0.149361 0.142856 0.146753 0.150978 0.15509 0.146753 0.149361 0.15509 0.157893 0.119569 0.120348 0.130212 0.131155 0.120348 0.119849 0.131155 0.130793 0.130212 0.131155 0.140139 0.141249 0.131155 0.130793 0.141249 0.141032 0.119849 0.118064 0.130793 0.129123 0.118064 0.115011 0.129123 0.126162 0.130793 0.129123 0.141032 0.139487 0.129123 0.126162 0.139487 0.136631 0.140139 0.141249 0.149361 0.150643 0.141249 0.141032 0.150643 0.150579 0.149361 0.150643 0.157893 0.159351 0.150643 0.150579 0.159351 0.159446 0.141032 0.139487 0.150579 0.149168 0.139487 0.136631 0.149168 0.146429 0.150579 0.149168 0.159446 0.158178 0.149168 0.146429 0.158178 0.155567 0.139062 0.145611 0.146016 0.152823 0.145611 0.150978 0.152823 0.158424 0.146016 0.152823 0.152322 0.15938 0.152823 0.158424 0.15938 0.165211 0.150978 0.15509 0.158424 0.162751 0.15509 0.157893 0.162751 0.165749 0.158424 0.162751 0.165211 0.169748 0.162751 0.165749 0.169748 0.172943 0.152322 0.15938 0.157997 0.165297 0.15938 0.165211 0.165297 0.171352 0.157997 0.165297 0.163057 0.17059 0.165297 0.171352 0.17059 0.176863 0.165211 0.169748 0.171352 0.176098 0.169748 0.172943 0.176098 0.179489 0.171352 0.176098 0.176863 0.181816 0.176098 0.179489 0.181816 0.185402 0.157893 0.159351 0.165749 0.167386 0.159351 0.159446 0.167386 0.167646 0.165749 0.167386 0.172943 0.174763 0.167386 0.167646 0.174763 0.175193 0.159446 0.158178 0.167646 0.16653 0.158178 0.155567 0.16653 0.164059 0.167646 0.16653 0.175193 0.174237 0.16653 0.164059 0.174237 0.171915 0.172943 0.174763 0.179