# vtk DataFile Version 3.0
#This file was generated by the deal.II library on 2016/1/13 at 15:24:04
ASCII
DATASET UNSTRUCTURED_GRID

POINTS 1280 double
-0.707107 -0.707107 0
-0.55557 -0.83147 0
-0.65533 -0.65533 0
-0.507759 -0.753761 0
-0.55557 -0.83147 0
-0.382683 -0.92388 0
-0.507759 -0.753761 0
-0.349513 -0.836215 0
-0.65533 -0.65533 0
-0.507759 -0.753761 0
-0.603553 -0.603553 0
-0.459948 -0.676052 0
-0.507759 -0.753761 0
-0.349513 -0.836215 0
-0.459948 -0.676052 0
-0.316342 -0.748551 0
-0.382683 -0.92388 0
-0.19509 -0.980785 0
-0.349513 -0.836215 0
-0.176631 -0.883336 0
-0.19509 -0.980785 0
-1.83697e-16 -1 0
-0.176631 -0.883336 0
-1.60735e-16 -0.911612 0
-0.349513 -0.836215 0
-0.176631 -0.883336 0
-0.316342 -0.748551 0
-0.158171 -0.785887 0
-0.176631 -0.883336 0
-1.60735e-16 -0.911612 0
-0.158171 -0.785887 0
-1.37773e-16 -0.823223 0
-0.603553 -0.603553 0
-0.459948 -0.676052 0
-0.551777 -0.551777 0
-0.417474 -0.606332 0
-0.459948 -0.676052 0
-0.316342 -0.748551 0
-0.417474 -0.606332 0
-0.283171 -0.660887 0
-0.551777 -0.551777 0
-0.417474 -0.606332 0
-0.5 -0.5 0
-0.375 -0.536612 0
-0.417474 -0.606332 0
-0.283171 -0.660887 0
-0.375 -0.536612 0
-0.25 -0.573223 0
-0.316342 -0.748551 0
-0.158171 -0.785887 0
-0.283171 -0.660887 0
-0.141585 -0.697861 0
-0.158171 -0.785887 0
-1.37773e-16 -0.823223 0
-0.141585 -0.697861 0
-1.14811e-16 -0.734835 0
-0.283171 -0.660887 0
-0.141585 -0.697861 0
-0.25 -0.573223 0
-0.125 -0.609835 0
-0.141585 -0.697861 0
-1.14811e-16 -0.734835 0
-0.125 -0.609835 0
-9.18485e-17 -0.646447 0
-1.83697e-16 -1 0
0.19509 -0.980785 0
-1.60735e-16 -0.911612 0
0.176631 -0.883336 0
0.19509 -0.980785 0
0.382683 -0.92388 0
0.176631 -0.883336 0
0.349513 -0.836215 0
-1.60735e-16 -0.911612 0
0.176631 -0.883336 0
-1.37773e-16 -0.823223 0
0.158171 -0.785887 0
0.176631 -0.883336 0
0.349513 -0.836215 0
0.158171 -0.785887 0
0.316342 -0.748551 0
0.382683 -0.92388 0
0.55557 -0.83147 0
0.349513 -0.836215 0
0.507759 -0.753761 0
0.55557 -0.83147 0
0.707107 -0.707107 0
0.507759 -0.753761 0
0.65533 -0.65533 0
0.349513 -0.836215 0
0.507759 -0.753761 0
0.316342 -0.748551 0
0.459948 -0.676052 0
0.507759 -0.753761 0
0.65533 -0.65533 0
0.459948 -0.676052 0
0.603553 -0.603553 0
-1.37773e-16 -0.823223 0
0.158171 -0.785887 0
-1.14811e-16 -0.734835 0
0.141585 -0.697861 0
0.158171 -0.785887 0
0.316342 -0.748551 0
0.141585 -0.697861 0
0.283171 -0.660887 0
-1.14811e-16 -0.734835 0
0.141585 -0.697861 0
-9.18485e-17 -0.646447 0
0.125 -0.609835 0
0.141585 -0.697861 0
0.283171 -0.660887 0
0.125 -0.609835 0
0.25 -0.573223 0
0.316342 -0.748551 0
0.459948 -0.676052 0
0.283171 -0.660887 0
0.417474 -0.606332 0
0.459948 -0.676052 0
0.603553 -0.603553 0
0.417474 -0.606332 0
0.551777 -0.551777 0
0.283171 -0.660887 0
0.417474 -0.606332 0
0.25 -0.573223 0
0.375 -0.536612 0
0.417474 -0.606332 0
0.551777 -0.551777 0
0.375 -0.536612 0
0.5 -0.5 0
-0.5 -0.5 0
-0.375 -0.536612 0
-0.448223 -0.448223 0
-0.336167 -0.475682 0
-0.375 -0.536612 0
-0.25 -0.573223 0
-0.336167 -0.475682 0
-0.224112 -0.503141 0
-0.448223 -0.448223 0
-0.336167 -0.475682 0
-0.396447 -0.396447 0
-0.297335 -0.414752 0
-0.336167 -0.475682 0
-0.224112 -0.503141 0
-0.297335 -0.414752 0
-0.198223 -0.433058 0
-0.25 -0.573223 0
-0.125 -0.609835 0
-0.224112 -0.503141 0
-0.112056 -0.5306 0
-0.125 -0.609835 0
-9.18485e-17 -0.646447 0
-0.112056 -0.5306 0
-6.88864e-17 -0.558058 0
-0.224112 -0.503141 0
-0.112056 -0.5306 0
-0.198223 -0.433058 0
-0.0991117 -0.451364 0
-0.112056 -0.5306 0
-6.88864e-17 -0.558058 0
-0.0991117 -0.451364 0
-4.59243e-17 -0.46967 0
-0.396447 -0.396447 0
-0.297335 -0.414752 0
-0.34467 -0.34467 0
-0.258502 -0.353823 0
-0.297335 -0.414752 0
-0.198223 -0.433058 0
-0.258502 -0.353823 0
-0.172335 -0.362976 0
-0.34467 -0.34467 0
-0.258502 -0.353823 0
-0.292893 -0.292893 0
-0.21967 -0.292893 0
-0.258502 -0.353823 0
-0.172335 -0.362976 0
-0.21967 -0.292893 0
-0.146447 -0.292893 0
-0.198223 -0.433058 0
-0.0991117 -0.451364 0
-0.172335 -0.362976 0
-0.0861675 -0.372129 0
-0.0991117 -0.451364 0
-4.59243e-17 -0.46967 0
-0.0861675 -0.372129 0
-2.29621e-17 -0.381282 0
-0.172335 -0.362976 0
-0.0861675 -0.372129 0
-0.146447 -0.292893 0
-0.0732233 -0.292893 0
-0.0861675 -0.372129 0
-2.29621e-17 -0.381282 0
-0.0732233 -0.292893 0
0 -0.292893 0
-9.18485e-17 -0.646447 0
0.125 -0.609835 0
-6.88864e-17 -0.558058 0
0.112056 -0.5306 0
0.125 -0.609835 0
0.25 -0.573223 0
0.112056 -0.5306 0
0.224112 -0.503141 0
-6.88864e-17 -0.558058 0
0.112056 -0.5306 0
-4.59243e-17 -0.46967 0
0.0991117 -0.451364 0
0.112056 -0.5306 0
0.224112 -0.503141 0
0.0991117 -0.451364 0
0.198223 -0.433058 0
0.25 -0.573223 0
0.375 -0.536612 0
0.224112 -0.503141 0
0.336167 -0.475682 0
0.375 -0.536612 0
0.5 -0.5 0
0.336167 -0.475682 0
0.448223 -0.448223 0
0.224112 -0.503141 0
0.336167 -0.475682 0
0.198223 -0.433058 0
0.297335 -0.414752 0
0.336167 -0.475682 0
0.448223 -0.448223 0
0.297335 -0.414752 0
0.396447 -0.396447 0
-4.59243e-17 -0.46967 0
0.0991117 -0.451364 0
-2.29621e-17 -0.381282 0
0.0861675 -0.372129 0
0.0991117 -0.451364 0
0.198223 -0.433058 0
0.0861675 -0.372129 0
0.172335 -0.362976 0
-2.29621e-17 -0.381282 0
0.0861675 -0.372129 0
0 -0.292893 0
0.0732233 -0.292893 0
0.0861675 -0.372129 0
0.172335 -0.362976 0
0.0732233 -0.292893 0
0.146447 -0.292893 0
0.198223 -0.433058 0
0.297335 -0.414752 0
0.172335 -0.362976 0
0.258502 -0.353823 0
0.297335 -0.414752 0
0.396447 -0.396447 0
0.258502 -0.353823 0
0.34467 -0.34467 0
0.172335 -0.362976 0
0.258502 -0.353823 0
0.146447 -0.292893 0
0.21967 -0.292893 0
0.258502 -0.353823 0
0.34467 -0.34467 0
0.21967 -0.292893 0
0.292893 -0.292893 0
-0.707107 -0.707107 0
-0.65533 -0.65533 0
-0.83147 -0.55557 0
-0.753761 -0.507759 0
-0.65533 -0.65533 0
-0.603553 -0.603553 0
-0.753761 -0.507759 0
-0.676052 -0.459948 0
-0.83147 -0.55557 0
-0.753761 -0.507759 0
-0.92388 -0.382683 0
-0.836215 -0.349513 0
-0.753761 -0.507759 0
-0.676052 -0.459948 0
-0.836215 -0.349513 0
-0.748551 -0.316342 0
-0.603553 -0.603553 0
-0.551777 -0.551777 0
-0.676052 -0.459948 0
-0.606332 -0.417474 0
-0.551777 -0.551777 0
-0.5 -0.5 0
-0.606332 -0.417474 0
-0.536612 -0.375 0
-0.676052 -0.459948 0
-0.606332 -0.417474 0
-0.748551 -0.316342 0
-0.660887 -0.283171 0
-0.606332 -0.417474 0
-0.536612 -0.375 0
-0.660887 -0.283171 0
-0.573223 -0.25 0
-0.92388 -0.382683 0
-0.836215 -0.349513 0
-0.980785 -0.19509 0
-0.883336 -0.176631 0
-0.836215 -0.349513 0
-0.748551 -0.316342 0
-0.883336 -0.176631 0
-0.785887 -0.158171 0
-0.980785 -0.19509 0
-0.883336 -0.176631 0
-1 1.22465e-16 0
-0.911612 1.07157e-16 0
-0.883336 -0.176631 0
-0.785887 -0.158171 0
-0.911612 1.07157e-16 0
-0.823223 9.18485e-17 0
-0.748551 -0.316342 0
-0.660887 -0.283171 0
-0.785887 -0.158171 0
-0.697861 -0.141585 0
-0.660887 -0.283171 0
-0.573223 -0.25 0
-0.697861 -0.141585 0
-0.609835 -0.125 0
-0.785887 -0.158171 0
-0.697861 -0.141585 0
-0.823223 9.18485e-17 0
-0.734835 7.65404e-17 0
-0.697861 -0.141585 0
-0.609835 -0.125 0
-0.734835 7.65404e-17 0
-0.646447 6.12323e-17 0
-0.5 -0.5 0
-0.448223 -0.448223 0
-0.536612 -0.375 0
-0.475682 -0.336167 0
-0.448223 -0.448223 0
-0.396447 -0.396447 0
-0.475682 -0.336167 0
-0.414752 -0.297335 0
-0.536612 -0.375 0
-0.475682 -0.336167 0
-0.573223 -0.25 0
-0.503141 -0.224112 0
-0.475682 -0.336167 0
-0.414752 -0.297335 0
-0.503141 -0.224112 0
-0.433058 -0.198223 0
-0.396447 -0.396447 0
-0.34467 -0.34467 0
-0.414752 -0.297335 0
-0.353823 -0.258502 0
-0.34467 -0.34467 0
-0.292893 -0.292893 0
-0.353823 -0.258502 0
-0.292893 -0.21967 0
-0.414752 -0.297335 0
-0.353823 -0.258502 0
-0.433058 -0.198223 0
-0.362976 -0.172335 0
-0.353823 -0.258502 0
-0.292893 -0.21967 0
-0.362976 -0.172335 0
-0.292893 -0.146447 0
-0.573223 -0.25 0
-0.503141 -0.224112 0
-0.609835 -0.125 0
-0.5306 -0.112056 0
-0.503141 -0.224112 0
-0.433058 -0.198223 0
-0.5306 -0.112056 0
-0.451364 -0.0991117 0
-0.609835 -0.125 0
-0.5306 -0.112056 0
-0.646447 6.12323e-17 0
-0.558058 4.59243e-17 0
-0.5306 -0.112056 0
-0.451364 -0.0991117 0
-0.558058 4.59243e-17 0
-0.46967 3.06162e-17 0
-0.433058 -0.198223 0
-0.362976 -0.172335 0
-0.451364 -0.0991117 0
-0.372129 -0.0861675 0
-0.362976 -0.172335 0
-0.292893 -0.146447 0
-0.372129 -0.0861675 0
-0.292893 -0.0732233 0
-0.451364 -0.0991117 0
-0.372129 -0.0861675 0
-0.46967 3.06162e-17 0
-0.381282 1.53081e-17 0
-0.372129 -0.0861675 0
-0.292893 -0.0732233 0
-0.381282 1.53081e-17 0
-0.292893 0 0
-1 1.22465e-16 0
-0.911612 1.07157e-16 0
-0.980785 0.19509 0
-0.883336 0.176631 0
-0.911612 1.07157e-16 0
-0.823223 9.18485e-17 0
-0.883336 0.176631 0
-0.785887 0.158171 0
-0.980785 0.19509 0
-0.883336 0.176631 0
-0.92388 0.382683 0
-0.836215 0.349513 0
-0.883336 0.176631 0
-0.785887 0.158171 0
-0.836215 0.349513 0
-0.748551 0.316342 0
-0.823223 9.18485e-17 0
-0.734835 7.65404e-17 0
-0.785887 0.158171 0
-0.697861 0.141585 0
-0.734835 7.65404e-17 0
-0.646447 6.12323e-17 0
-0.697861 0.141585 0
-0.609835 0.125 0
-0.785887 0.158171 0
-0.697861 0.141585 0
-0.748551 0.316342 0
-0.660887 0.283171 0
-0.697861 0.141585 0
-0.609835 0.125 0
-0.660887 0.283171 0
-0.573223 0.25 0
-0.92388 0.382683 0
-0.836215 0.349513 0
-0.83147 0.55557 0
-0.753761 0.507759 0
-0.836215 0.349513 0
-0.748551 0.316342 0
-0.753761 0.507759 0
-0.676052 0.459948 0
-0.83147 0.55557 0
-0.753761 0.507759 0
-0.707107 0.707107 0
-0.65533 0.65533 0
-0.753761 0.507759 0
-0.676052 0.459948 0
-0.65533 0.65533 0
-0.603553 0.603553 0
-0.748551 0.316342 0
-0.660887 0.283171 0
-0.676052 0.459948 0
-0.606332 0.417474 0
-0.660887 0.283171 0
-0.573223 0.25 0
-0.606332 0.417474 0
-0.536612 0.375 0
-0.676052 0.459948 0
-0.606332 0.417474 0
-0.603553 0.603553 0
-0.551777 0.551777 0
-0.606332 0.417474 0
-0.536612 0.375 0
-0.551777 0.551777 0
-0.5 0.5 0
-0.646447 6.12323e-17 0
-0.558058 4.59243e-17 0
-0.609835 0.125 0
-0.5306 0.112056 0
-0.558058 4.59243e-17 0
-0.46967 3.06162e-17 0
-0.5306 0.112056 0
-0.451364 0.0991117 0
-0.609835 0.125 0
-0.5306 0.112056 0
-0.573223 0.25 0
-0.503141 0.224112 0
-0.5306 0.112056 0
-0.451364 0.0991117 0
-0.503141 0.224112 0
-0.433058 0.198223 0
[...]
POINT_DATA 1280
SCALARS solution double 1
LOOKUP_TABLE default
0 0 -0.069696 -0.0242998 0 0 -0.0242998 0.0450155 -0.069696 -0.0242998 -0.117466 -0.0414828 -0.0242998 0.0450155 -0.0414828 0.069497 0 0 0.0450155 0.104471 0 0 0.104471 0.115002 0.0450155 0.104471 0.069497 0.163057 0.104471 0.115002 0.163057 0.185775 -0.117466 -0.0414828 -0.145641 -0.0514802 -0.0414828 0.069497 -0.0514802 0.0770491 -0.145641 -0.0514802 -0.156984 -0.0566706 -0.0514802 0.0770491 -0.0566706 0.0717847 0.069497 0.163057 0.0770491 0.18282 0.163057 0.185775 0.18282 0.218467 0.0770491 0.18282 0.0717847 0.177928 0.18282 0.218467 0.177928 0.220335 0 0 0.115002 0.104471 0 0 0.104471 0.0450155 0.115002 0.104471 0.185775 0.163057 0.104471 0.0450155 0.163057 0.069497 0 0 0.0450155 -0.0242998 0 0 -0.0242998 -0.069696 0.0450155 -0.0242998 0.069497 -0.0414828 -0.0242998 -0.069696 -0.0414828 -0.117466 0.185775 0.163057 0.218467 0.18282 0.163057 0.069497 0.18282 0.0770491 0.218467 0.18282 0.220335 0.177928 0.18282 0.0770491 0.177928 0.0717847 0.069497 -0.0414828 0.0770491 -0.0514802 -0.0414828 -0.117466 -0.0514802 -0.145641 0.0770491 -0.0514802 0.0717847 -0.0566706 -0.0514802 -0.145641 -0.0566706 -0.156984 -0.156984 -0.0566706 -0.154538 -0.0561523 -0.0566706 0.0717847 -0.0561523 0.0607035 -0.154538 -0.0561523 -0.141504 -0.052688 -0.0561523 0.0607035 -0.052688 0.0464275 0.0717847 0.177928 0.0607035 0.157143 0.177928 0.220335 0.157143 0.199243 0.0607035 0.157143 0.0464275 0.127298 0.157143 0.199243 0.127298 0.163232 -0.141504 -0.052688 -0.121118 -0.0469456 -0.052688 0.0464275 -0.0469456 0.0311078 -0.121118 -0.0469456 -0.096534 -0.0395929 -0.0469456 0.0311078 -0.0395929 0.0167002 0.0464275 0.127298 0.0311078 0.0934358 0.127298 0.163232 0.0934358 0.120073 0.0311078 0.0934358 0.0167002 0.0601582 0.0934358 0.120073 0.0601582 0.0768665 0.220335 0.177928 0.199243 0.157143 0.177928 0.0717847 0.157143 0.0607035 0.199243 0.157143 0.163232 0.127298 0.157143 0.0607035 0.127298 0.0464275 0.0717847 -0.0566706 0.0607035 -0.0561523 -0.0566706 -0.156984 -0.0561523 -0.154538 0.0607035 -0.0561523 0.0464275 -0.052688 -0.0561523 -0.154538 -0.052688 -0.141504 0.163232 0.127298 0.120073 0.0934358 0.127298 0.0464275 0.0934358 0.0311078 0.120073 0.0934358 0.0768665 0.0601582 0.0934358 0.0311078 0.0601582 0.0167002 0.0464275 -0.052688 0.0311078 -0.0469456 -0.052688 -0.141504 -0.0469456 -0.121118 0.0311078 -0.0469456 0.0167002 -0.0395929 -0.0469456 -0.121118 -0.0395929 -0.096534 0 -0.069696 0 -0.115343 -0.069696 -0.117466 -0.115343 -0.184262 0 -0.115343 0 -0.1117 -0.115343 -0.184262 -0.1117 -0.178504 -0.117466 -0.145641 -0.184262 -0.212065 -0.145641 -0.156984 -0.212065 -0.213871 -0.184262 -0.212065 -0.178504 -0.20697 -0.212065 -0.213871 -0.20697 -0.204875 0 -0.1117 0 -0.0702622 -0.1117 -0.178504 -0.0702622 -0.110559 0 -0.0702622 0 1.9055e-14 -0.0702622 -0.110559 1.9055e-14 3.60872e-14 -0.178504 -0.20697 -0.110559 -0.125209 -0.20697 -0.204875 -0.125209 -0.123438 -0.110559 -0.125209 3.60872e-14 2.07056e-14 -0.125209 -0.123438 2.07056e-14 -1.46192e-14 -0.156984 -0.154538 -0.213871 -0.199138 -0.154538 -0.141504 -0.199138 -0.173309 -0.213871 -0.199138 -0.204875 -0.18714 -0.199138 -0.173309 -0.18714 -0.159647 -0.141504 -0.121118 -0.173309 -0.140669 -0.121118 -0.096534 -0.140669 -0.105281 -0.173309 -0.140669 -0.159647 -0.12658 -0.140669 -0.105281 -0.12658 -0.0918514 -0.204875 -0.18714 -0.123438 -0.11323 -0.18714 -0.159647 -0.11323 -0.0964625 -0.123438 -0.11323 -1.46192e-14 -4.68517e-14 -0.11323 -0.0964625 -4.68517e-14 -4.13887e-14 -0.159647 -0.12658 -0.0964625 -0.075965 -0.12658 -0.0918514 -0.075965 -0.0543737 -0.0964625 -0.075965 -4.13887e-14 -2.25053e-14 -0.075965 -0.0543737 -2.25053e-14 -8.47408e-15 0 1.9055e-14 0 0.0702622 1.9055e-14 3.60872e-14 0.0702622 0.110559 0 0.0702622 0 0.1117 0.0702622 0.110559 0.1117 0.178504 3.60872e-14 2.07056e-14 0.110559 0.125209 2.07056e-14 -1.46192e-14 0.125209 0.123438 0.110559 0.125209 0.178504 0.20697 0.125209 0.123438 0.20697 0.204875 0 0.1117 0 0.115343 0.1117 0.178504 0.115343 0.184262 0 0.115343 0 0.069696 0.115343 0.184262 0.069696 0.117466 0.178504 0.20697 0.184262 0.212065 0.20697 0.204875 0.212065 0.213871 0.184262 0.212065 0.117466 0.145641 0.212065 0.213871 0.145641 0.156984 -1.46192e-14 -4.68517e-14 0.123438 0.11323 -4.68517e-14 -4.13887e-14 0.11323 0.0964625 0.123438 0.11323 0.204875 0.18714 0.11323 0.0964625 0.18714 0.159647 -4.13887e-14 -2.25053e-14 0.0964625 0.075965 -2.25053e-14 -8.47408e-15 0.075965 0.0543737 0.0964625 0.075965 0.159647 0.12658 0.075965 0.0543737 0.12658 0.0918514 0.204875 0.18714 0.213871 0.199138 0.18714 0.159647 0.199138 0.173309 0.213871 0.199138 0.156984 0.154538 0.199138 0.173309 0.154538 0.141504 0.159647 0.12658 0.173309 0.140669 0.12658 0.0918514 0.140669 0.105281 0.173309 0.140669 0.141504 0.121118 0.140669 0.105281 0.121118 0.096534 -0.096534 -0.0395929 -0.105281 -0.0602773 -0.0395929 0.0167002 -0.0602773 -0.0122492 -0.105281 -0.0602773 -0.0918514 -0.0626061 -0.0602773 -0.0122492 -0.0626061 -0.0287392 0.0167002 0.0601582 -0.0122492 0.0285224 0.0601582 0.0768665 0.0285224 0.0454105 -0.0122492 0.0285224 -0.0287392 0.00463759 0.0285224 0.0454105 0.00463759 0.0208808 -0.0918514 -0.0626061 -0.0543737 -0.0411992 -0.0626061 -0.0287392 -0.0411992 -0.0255083 -0.0543737 -0.0411992 -8.47408e-15 -1.25575e-14 -0.0411992 -0.0255083 -1.25575e-14 -4.83818e-14 -0.0287392 0.00463759 -0.0255083 -0.00748572 0.00463759 0.0208808 -0.00748572 0.00532814 -0.0255083 -0.00748572 -4.83818e-14 -8.08108e-14 -0.00748572 0.00532814 -8.08108e-14 -4.57054e-14 0.0768665 0.0601582 0.0454105 0.0285224 0.0601582 0.0167002 0.0285224 -0.0122492 0.0454105 0.0285224 0.0208808 0.00463759 0.0285224 -0.0122492 0.00463759 -0.0287392 0.0167002 -0.0395929 -0.0122492 -0.0602773 -0.0395929 -0.096534 -0.0602773 -0.105281 -0.0122492 -0.0602773 -0.0287392 -0.0626061 -0.0602773 -0.105281 -0.0626061 -0.0918514 0.0208808 0.00463759 0.00532814 -0.00748572 0.00463759 -0.0287392 -0.00748572 -0.0255083 0.00532814 -0.00748572 -4.57054e-14 -2.70177e-14 -0.00748572 -0.0255083 -2.70177e-14 -4.44521e-14 -0.0287392 -0.0626061 -0.0255083 -0.0411992 -0.0626061 -0.0918514 -0.0411992 -0.0543737 -0.0255083 -0.0411992 -4.44521e-14 -5.70905e-14 -0.0411992 -0.0543737 -5.70905e-14 -5.6073e-14 -8.47408e-15 -1.25575e-14 0.0543737 0.0411992 -1.25575e-14 -4.83818e-14 0.0411992 0.0255083 0.0543737 0.0411992 0.0918514 0.0626061 0.0411992 0.0255083 0.0626061 0.0287392 -4.83818e-14 -8.08108e-14 0.0255083 0.00748572 -8.08108e-14 -4.57054e-14 0.00748572 -0.00532814 0.0255083 0.00748572 0.0287392 -0.00463759 0.00748572 -0.00532814 -0.00463759 -0.0208808 0.0918514 0.0626061 0.105281 0.0602773 0.0626061 0.0287392 0.0602773 0.0122492 0.105281 0.0602773 0.096534 0.0395929 0.0602773 0.0122492 0.0395929 -0.0167002 0.0287392 -0.00463759 0.0122492 -0.0285224 -0.00463759 -0.0208808 -0.0285224 -0.0454105 0.0122492 -0.0285224 -0.0167002 -0.0601582 -0.0285224 -0.0454105 -0.0601582 -0.0768665 -4.57054e-14 -2.70177e-14 -0.00532814 0.00748572 -2.70177e-14 -4.44521e-14 0.00748572 0.0255083 -0.00532814 0.00748572 -0.0208808 -0.00463759 0.00748572 0.0255083 -0.00463759 0.0287392 -4.44521e-14 -5.70905e-14 0.0255083 0.0411992 -5.70905e-14 -5.6073e-14 0.0411992 0.0543737 0.0255083 0.0411992 0.0287392 0.0626061 0.0411992 0.0543737 0.0626061 0.0918514 -0.0208808 -0.00463759 -0.0454105 -0.0285224 -0.00463759 0.0287392 -0.0285224 0.0122492 -0.0454105 -0.0285224 -0.0768665 -0.0601582 -0.0285224 0.0122492 -0.0601582 -0.0167002 0.0287392 0.0626061 0.0122492 0.0602773 0.0626061 0.0918514 0.0602773 0.105281 0.0122492 0.0602773 -0.0167002 0.0395929 0.0602773 0.105281 0.0395929 0.096534 0 0 -0.069696 -0.115343 0 0 -0.115343 -0.1117 -0.069696 -0.115343 -0.117466 -0.184262 -0.115343 -0.1117 -0.184262 -0.178504 0 0 -0.1117 -0.0702622 0 0 -0.0702622 2.36456e-14 -0.1117 -0.0702622 -0.178504 -0.110559 -0.0702622 2.36456e-14 -0.110559 5.16177e-14 -0.117466 -0.184262 -0.145641 -0.212065 -0.184262 -0.178504 -0.212065 -0.20697 -0.145641 -0.212065 -0.156984 -0.213871 -0.212065 -0.20697 -0.213871 -0.204875 -0.178504 -0.110559 -0.20697 -0.125209 -0.110559 5.16177e-14 -0.125209 5.59359e-14 -0.20697 -0.125209 -0.204875 -0.123438 -0.125209 5.59359e-14 -0.123438 4.5262e-14 0 0 2.36456e-14 0.0702622 0 0 0.0702622 0.1117 2.36456e-14 0.0702622 5.16177e-14 0.110559 0.0702622 0.1117 0.110559 0.178504 0 0 0.1117 0.115343 0 0 0.115343 0.069696 0.1117 0.115343 0.178504 0.184262 0.115343 0.069696 0.184262 0.117466 5.16177e-14 0.110559 5.59359e-14 0.125209 0.110559 0.178504 0.125209 0.20697 5.59359e-14 0.125209 4.5262e-14 0.123438 0.125209 0.20697 0.123438 0.204875 0.178504 0.184262 0.20697 0.212065 0.184262 0.117466 0.212065 0.145641 0.20697 0.212065 0.204875 0.213871 0.212065 0.145641 0.213871 0.156984 -0.156984 -0.213871 -0.154538 -0.199138 -0.213871 -0.204875 -0.199138 -0.18714 -0.154538 -0.199138 -0.141504 -0.173309 -0.199138 -0.18714 -0.173309 -0.159647 -0.204875 -0.123438 -0.18714 -0.11323 -0.123438 4.5262e-14 -0.11323 3.93396e-14 -0.18714 -0.11323 -0.159647 -0.0964625 -0.11323 3.93396e-14 -0.0964625 6.57254e-15 -0.141504 -0.173309 -0.121118 -0.140669 -0.173309 -0.159647 -0.140669 -0.12658 -0.121118 -0.140669 -0.096534 -0.105281 -0.140669 -0.12658 -0.105281 -0.0918514 -0.159647 -0.0964625 -0.12658 -0.075965 -0.0964625 6.57254e-15 -0.075965 -3.30933e-14 -0.12658 -0.075965 -0.0918514 -0.0543737 -0.075965 -3.30933e-14 -0.0543737 -5.6073e-14 4.5262e-14 0.123438 3.93396e-14 0.11323 0.123438 0.204875 0.11323 0.18714 3.93396e-14 0.11323 6.57254e-15 0.0964625 0.11323 0.18714 0.0964625 0.159647 0.204875 0.213871 0.18714 0.199138 0.213871 0.156984 0.199138 0.154538 0.18714 0.199138 0.159647 0.173309 0.199138 0.154538 0.173309 0.141504 6.57254e-15 0.0964625 -3.30933e-14 0.075965 0.0964625 0.159647 0.075965 0.12658 -3.30933e-14 0.075965 -5.6073e-14 0.0543737 0.075965 0.12658 0.0543737 0.0918514 0.159647 0.173309 0.12658 0.140669 0.173309 0.141504 0.140669 0.121118 0.12658 0.140669 0.0918514 0.105281 0.140669 0.121118 0.105281 0.096534 0 0.069696 0 0.0242998 0.069696 0.117466 0.0242998 0.0414828 0 0.0242998 0 -0.0450155 0.0242998 0.0414828 -0.0450155 -0.069497 0.117466 0.145641 0.0414828 0.0514802 0.145641 0.156984 0.0514802 0.0566706 0.0414828 0.0514802 -0.069497 -0.0770491 0.0514802 0.0566706 -0.0770491 -0.0717847 0 -0.0450155 0 -0.104471 -0.0450155 -0.069497 -0.104471 -0.163057 0 -0.104471 0 -0.115002 -0.104471 -0.163057 -0.115002 -0.185775 -0.069497 -0.0770491 -0.163057 -0.18282 -0.0770491 -0.0717847 -0.18282 -0.177928 -0.163057 -0.18282 -0.185775 -0.218467 -0.18282 -0.177928 -0.218467 -0.220335 0.156984 0.154538 0.0566706 0.0561523 0.154538 0.141504 0.0561523 0.052688 0.0566706 0.0561523 -0.0717847 -0.0607035 0.0561523 0.052688 -0.0607035 -0.0464275 0.141504 0.121118 0.052688 0.0469456 0.121118 0.096534 0.0469456 0.0395929 0.052688 0.0469456 -0.0464275 -0.0311078 0.0469456 0.0395929 -0.0311078 -0.0167002 -0.0717847 -0.0607035 -0.177928 -0.157143 -0.0607035 -0.0464275 -0.157143 -0.127298 -0.177928 -0.157143 -0.220335 -0.199243 -0.157143 -0.127298 -0.199243 -0.163232 -0.0464275 -0.0311078 -0.127298 -0.0934358 -0.0311078 -0.0167002 -0.0934358 -0.0601582 -0.127298 -0.0934358 -0.163232 -0.120073 -0.0934358 -0.0601582 -0.120073 -0.0768665 0 -0.115002 0 -0.104471 -0.115002 -0.185775 -0.104471 -0.163057 0 -0.104471 0 -0.0450155 -0.104471 -0.163057 -0.0450155 -0.069497 -0.185775 -0.218467 -0.163057 -0.18282 -0.218467 -0.220335 -0.18282 -0.177928 -0.163057 -0.18282 -0.069497 -0.0770491 -0.18282 -0.177928 -0.0770491 -0.0717847 0 -0.0450155 0 0.0242998 -0.0450155 -0.069497 0.0242998 0.0414828 0 0.0242998 0 0.069696 0.0242998 0.0414828 0.069696 0.117466 -0.069497 -0.0770491 0.0414828 0.0514802 -0.0770491 -0.0717847 0.0514802 0.0566706 0.0414828 0.0514802 0.117466 0.145641 0.0514802 0.0566706 0.145641 0.156984 -0.220335 -0.199243 -0.177928 -0.157143 -0.199243 -0.163232 -0.157143 -0.127298 -0.177928 -0.157143 -0.0717847 -0.0607035 -0.157143 -0.127298 -0.0607035 -0.0464275 -0.163232 -0.120073 -0.127298 -0.0934358 -0.120073 -0.0768665 -0.0934358 -0.0601582 -0.127298 -0.0934358 -0.0464275 -0.0311078 -0.0934358 -0.0601582 -0.0311078 -0.0167002 -0.0717847 -0.0607035 0.0566706 0.0561523 -0.0607035 -0.0464275 0.0561523 0.052688 0.0566706 0.0561523 0.156984 0.154538 0.0561523 0.052688 0.154538 0.141504 -0.0464275 -0.0311078 0.052688 0.0469456 -0.0311078 -0.0167002 0.0469456 0.0395929 0.052688 0.0469456 0.141504 0.121118 0.0469456 0.0395929 0.121118 0.096534 
