# vtk DataFile Version 3.0
#This file was generated by the deal.II library on 2016/1/13 at 15:24:03
ASCII
DATASET UNSTRUCTURED_GRID

POINTS 80 double
-0.707107 -0.707107 0
-1.83697e-16 -1 0
-0.5 -0.5 0
-9.18485e-17 -0.646447 0
-1.83697e-16 -1 0
0.707107 -0.707107 0
-9.18485e-17 -0.646447 0
0.5 -0.5 0
-0.5 -0.5 0
-9.18485e-17 -0.646447 0
-0.292893 -0.292893 0
0 -0.292893 0
-9.18485e-17 -0.646447 0
0.5 -0.5 0
0 -0.292893 0
0.292893 -0.292893 0
-0.707107 -0.707107 0
-0.5 -0.5 0
-1 1.22465e-16 0
-0.646447 6.12323e-17 0
-0.5 -0.5 0
-0.292893 -0.292893 0
-0.646447 6.12323e-17 0
-0.292893 0 0
-1 1.22465e-16 0
-0.646447 6.12323e-17 0
-0.707107 0.707107 0
-0.5 0.5 0
-0.646447 6.12323e-17 0
-0.292893 0 0
-0.5 0.5 0
-0.292893 0.292893 0
-0.292893 -0.292893 0
0 -0.292893 0
-0.292893 0 0
0 0 0
0 -0.292893 0
0.292893 -0.292893 0
0 0 0
0.292893 0 0
-0.292893 0 0
0 0 0
-0.292893 0.292893 0
0 0.292893 0
0 0 0
0.292893 0 0
0 0.292893 0
0.292893 0.292893 0
0.707107 -0.707107 0
1 0 0
0.5 -0.5 0
0.646447 0 0
1 0 0
0.707107 0.707107 0
0.646447 0 0
0.5 0.5 0
0.5 -0.5 0
0.646447 0 0
0.292893 -0.292893 0
0.292893 0 0
0.646447 0 0
0.5 0.5 0
0.292893 0 0
0.292893 0.292893 0
-0.707107 0.707107 0
-0.5 0.5 0
6.12323e-17 1 0
3.06162e-17 0.646447 0
-0.5 0.5 0
-0.292893 0.292893 0
3.06162e-17 0.646447 0
0 0.292893 0
6.12323e-17 1 0
3.06162e-17 0.646447 0
0.707107 0.707107 0
0.5 0.5 0
3.06162e-17 0.646447 0
0 0.292893 0
0.5 0.5 0
0.292893 0.292893 0

CELLS 20 100
4	0	1	3	2
4	4	5	7	6
4	8	9	11	10
4	12	13	15	14
4	16	17	19	18
4	20	21	23	22
4	24	25	27	26
4	28	29	31	30
4	32	33	35	34
4	36	37	39	38
4	40	41	43	42
4	44	45	47	46
4	48	49	51	50
4	52	53	55	54
4	56	57	59	58
4	60	61	63	62
4	64	65	67	66
4	68	69	71	70
4	72	73	75	74
4	76	77	79	78

CELL_TYPES 20
 9 9 9 9 9 9 9 9 9 9 9 9 9 9 9 9 9 9 9 9
POINT_DATA 80
SCALARS solution double 1
LOOKUP_TABLE default
0 0 -0.1568 0.219914 0 0 0.219914 -0.1568 -0.1568 0.219914 -0.0969578 0.0769543 0.219914 -0.1568 0.0769543 -0.0969578 0 -0.1568 0 -1.51203e-14 -0.1568 -0.0969578 -1.51203e-14 1.16953e-14 0 -1.51203e-14 0 0.1568 -1.51203e-14 1.16953e-14 0.1568 0.0969578 -0.0969578 0.0769543 1.16953e-14 -6.95397e-15 0.0769543 -0.0969578 -6.95397e-15 3.52832e-15 1.16953e-14 -6.95397e-15 0.0969578 -0.0769543 -6.95397e-15 3.52832e-15 -0.0769543 0.0969578 0 0 -0.1568 7.92975e-15 0 0 7.92975e-15 0.1568 -0.1568 7.92975e-15 -0.0969578 3.52832e-15 7.92975e-15 0.1568 3.52832e-15 0.0969578 0 0.1568 0 -0.219914 0.1568 0.0969578 -0.219914 -0.0769543 0 -0.219914 0 0.1568 -0.219914 -0.0769543 0.1568 0.0969578 
