# vtk DataFile Version 3.0
#This file was generated by the deal.II library on 2016/1/12 at 16:22:23
ASCII
DATASET UNSTRUCTURED_GRID

POINTS 256 double
0 0 0
0.125 0 0
0 0.125 0
0.125 0.125 0
0.125 0 0
0.25 0 0
0.125 0.125 0
0.25 0.125 0
0 0.125 0
0.125 0.125 0
0 0.25 0
0.125 0.25 0
0.125 0.125 0
0.25 0.125 0
0.125 0.25 0
0.25 0.25 0
0.25 0 0
0.375 0 0
0.25 0.125 0
0.375 0.125 0
0.375 0 0
0.5 0 0
0.375 0.125 0
0.5 0.125 0
0.25 0.125 0
0.375 0.125 0
0.25 0.25 0
0.375 0.25 0
0.375 0.125 0
0.5 0.125 0
0.375 0.25 0
0.5 0.25 0
0 0.25 0
0.125 0.25 0
0 0.375 0
0.125 0.375 0
0.125 0.25 0
0.25 0.25 0
0.125 0.375 0
0.25 0.375 0
0 0.375 0
0.125 0.375 0
0 0.5 0
0.125 0.5 0
0.125 0.375 0
0.25 0.375 0
0.125 0.5 0
0.25 0.5 0
0.25 0.25 0
0.375 0.25 0
0.25 0.375 0
0.375 0.375 0
0.375 0.25 0
0.5 0.25 0
0.375 0.375 0
0.5 0.375 0
0.25 0.375 0
0.375 0.375 0
0.25 0.5 0
0.375 0.5 0
0.375 0.375 0
0.5 0.375 0
0.375 0.5 0
0.5 0.5 0
0.5 0 0
0.625 0 0
0.5 0.125 0
0.625 0.125 0
0.625 0 0
0.75 0 0
0.625 0.125 0
0.75 0.125 0
0.5 0.125 0
0.625 0.125 0
0.5 0.25 0
0.625 0.25 0
0.625 0.125 0
0.75 0.125 0
0.625 0.25 0
0.75 0.25 0
0.75 0 0
0.875 0 0
0.75 0.125 0
0.875 0.125 0
0.875 0 0
1 0 0
0.875 0.125 0
1 0.125 0
0.75 0.125 0
0.875 0.125 0
0.75 0.25 0
0.875 0.25 0
0.875 0.125 0
1 0.125 0
0.875 0.25 0
1 0.25 0
0.5 0.25 0
0.625 0.25 0
0.5 0.375 0
0.625 0.375 0
0.625 0.25 0
0.75 0.25 0
0.625 0.375 0
0.75 0.375 0
0.5 0.375 0
0.625 0.375 0
0.5 0.5 0
0.625 0.5 0
0.625 0.375 0
0.75 0.375 0
0.625 0.5 0
0.75 0.5 0
0.75 0.25 0
0.875 0.25 0
0.75 0.375 0
0.875 0.375 0
0.875 0.25 0
1 0.25 0
0.875 0.375 0
1 0.375 0
0.75 0.375 0
0.875 0.375 0
0.75 0.5 0
0.875 0.5 0
0.875 0.375 0
1 0.375 0
0.875 0.5 0
1 0.5 0
0 0.5 0
0.125 0.5 0
0 0.625 0
0.125 0.625 0
0.125 0.5 0
0.25 0.5 0
0.125 0.625 0
0.25 0.625 0
0 0.625 0
0.125 0.625 0
0 0.75 0
0.125 0.75 0
0.125 0.625 0
0.25 0.625 0
0.125 0.75 0
0.25 0.75 0
0.25 0.5 0
0.375 0.5 0
0.25 0.625 0
0.375 0.625 0
0.375 0.5 0
0.5 0.5 0
0.375 0.625 0
0.5 0.625 0
0.25 0.625 0
0.375 0.625 0
0.25 0.75 0
0.375 0.75 0
0.375 0.625 0
0.5 0.625 0
0.375 0.75 0
0.5 0.75 0
0 0.75 0
0.125 0.75 0
0 0.875 0
0.125 0.875 0
0.125 0.75 0
0.25 0.75 0
0.125 0.875 0
0.25 0.875 0
0 0.875 0
0.125 0.875 0
0 1 0
0.125 1 0
0.125 0.875 0
0.25 0.875 0
0.125 1 0
0.25 1 0
0.25 0.75 0
0.375 0.75 0
0.25 0.875 0
0.375 0.875 0
0.375 0.75 0
0.5 0.75 0
0.375 0.875 0
0.5 0.875 0
0.25 0.875 0
0.375 0.875 0
0.25 1 0
0.375 1 0
0.375 0.875 0
0.5 0.875 0
0.375 1 0
0.5 1 0
0.5 0.5 0
0.625 0.5 0
0.5 0.625 0
0.625 0.625 0
0.625 0.5 0
0.75 0.5 0
0.625 0.625 0
0.75 0.625 0
0.5 0.625 0
0.625 0.625 0
0.5 0.75 0
0.625 0.75 0
0.625 0.625 0
0.75 0.625 0
0.625 0.75 0
0.75 0.75 0
0.75 0.5 0
0.875 0.5 0
0.75 0.625 0
0.875 0.625 0
0.875 0.5 0
1 0.5 0
0.875 0.625 0
1 0.625 0
0.75 0.625 0
0.875 0.625 0
0.75 0.75 0
0.875 0.75 0
0.875 0.625 0
1 0.625 0
0.875 0.75 0
1 0.75 0
0.5 0.75 0
0.625 0.75 0
0.5 0.875 0
0.625 0.875 0
0.625 0.75 0
0.75 0.75 0
0.625 0.875 0
0.75 0.875 0
0.5 0.875 0
0.625 0.875 0
0.5 1 0
0.625 1 0
0.625 0.875 0
0.75 0.875 0
0.625 1 0
0.75 1 0
0.75 0.75 0
0.875 0.75 0
0.75 0.875 0
0.875 0.875 0
0.875 0.75 0
1 0.75 0
0.875 0.875 0
1 0.875 0
0.75 0.875 0
0.875 0.875 0
0.75 1 0
0.875 1 0
0.875 0.875 0
1 0.875 0
0.875 1 0
1 1 0

CELLS 64 320
4	0	1	3	2
4	4	5	7	6
4	8	9	11	10
4	12	13	15	14
4	16	17	19	18
4	20	21	23	22
4	24	25	27	26
4	28	29	31	30
4	32	33	35	34
4	36	37	39	38
4	40	41	43	42
4	44	45	47	46
4	48	49	51	50
4	52	53	55	54
4	56	57	59	58
4	60	61	63	62
4	64	65	67	66
4	68	69	71	70
4	72	73	75	74
4	76	77	79	78
4	80	81	83	82
4	84	85	87	86
4	88	89	91	90
4	92	93	95	94
4	96	97	99	98
4	100	101	103	102
4	104	105	107	106
4	108	109	111	110
4	112	113	115	114
4	116	117	119	118
4	120	121	123	122
4	124	125	127	126
4	128	129	131	130
4	132	133	135	134
4	136	137	139	138
4	140	141	143	142
4	144	145	147	146
4	148	149	151	150
4	152	153	155	154
4	156	157	159	158
4	160	161	163	162
4	164	165	167	166
4	168	169	171	170
4	172	173	175	174
4	176	177	179	178
4	180	181	183	182
4	184	185	187	186
4	188	189	191	190
4	192	193	195	194
4	196	197	199	198
4	200	201	203	202
4	204	205	207	206
4	208	209	211	210
4	212	213	215	214
4	216	217	219	218
4	220	221	223	222
4	224	225	227	226
4	228	229	231	230
4	232	233	235	234
4	236	237	239	238
4	240	241	243	242
4	244	245	247	246
4	248	249	251	250
4	252	253	255	254

CELL_TYPES 64
 9 9 9 9 9 9 9 9 9 9 9 9 9 9 9 9 9 9 9 9 9 9 9 9 9 9 9 9 9 9 9 9 9 9 9 9 9 9 9 9 9 9 9 9 9 9 9 9 9 9 9 9 9 9 9 9 9 9 9 9 9 9 9 9
POINT_DATA 256
SCALARS solution double 1
LOOKUP_TABLE default
0 0.382683 0 0.354978 0.382683 0.707107 0.354978 0.655914 0 0.354978 0 0.272244 0.354978 0.655914 0.272244 0.503042 0.707107 0.92388 0.655914 0.856992 0.92388 1 0.856992 0.927602 0.655914 0.856992 0.503042 0.657256 0.856992 0.927602 0.657256 0.711409 0 0.272244 0 0.147483 0.272244 0.503042 0.147483 0.272513 0 0.147483 0 1.09223e-17 0.147483 0.272513 1.09223e-17 3.43368e-17 0.503042 0.657256 0.272513 0.356056 0.657256 0.711409 0.356056 0.385392 0.272513 0.356056 3.43368e-17 5.22929e-17 0.356056 0.385392 5.22929e-17 6.13938e-17 1 0.92388 0.927602 0.856992 0.92388 0.707107 0.856992 0.655914 0.927602 0.856992 0.711409 0.657256 0.856992 0.655914 0.657256 0.503042 0.707107 0.382683 0.655914 0.354978 0.382683 1.22465e-16 0.354978 1.13143e-16 0.655914 0.354978 0.503042 0.272244 0.354978 1.13143e-16 0.272244 8.65956e-17 0.711409 0.657256 0.385392 0.356056 0.657256 0.503042 0.356056 0.272513 0.385392 0.356056 6.13938e-17 3.92183e-17 0.356056 0.272513 3.92183e-17 8.23351e-18 0.503042 0.272244 0.272513 0.147483 0.272244 8.65956e-17 0.147483 4.68652e-17 0.272513 0.147483 8.23351e-18 2.33324e-17 0.147483 4.68652e-17 2.33324e-17 7.4988e-33 0 1.09223e-17 0 -0.147483 1.09223e-17 3.43368e-17 -0.147483 -0.272513 0 -0.147483 0 -0.272244 -0.147483 -0.272513 -0.272244 -0.503042 3.43368e-17 5.22929e-17 -0.272513 -0.356056 5.22929e-17 6.13938e-17 -0.356056 -0.385392 -0.272513 -0.356056 -0.503042 -0.657256 -0.356056 -0.385392 -0.657256 -0.711409 0 -0.272244 0 -0.354978 -0.272244 -0.503042 -0.354978 -0.655914 0 -0.354978 0 -0.382683 -0.354978 -0.655914 -0.382683 -0.707107 -0.503042 -0.657256 -0.655914 -0.856992 -0.657256 -0.711409 -0.856992 -0.927602 -0.655914 -0.856992 -0.707107 -0.92388 -0.856992 -0.927602 -0.92388 -1 6.13938e-17 3.92183e-17 -0.385392 -0.356056 3.92183e-17 8.23351e-18 -0.356056 -0.272513 -0.385392 -0.356056 -0.711409 -0.657256 -0.356056 -0.272513 -0.657256 -0.503042 8.23351e-18 2.33324e-17 -0.272513 -0.147483 2.33324e-17 7.4988e-33 -0.147483 -4.68652e-17 -0.272513 -0.147483 -0.503042 -0.272244 -0.147483 -4.68652e-17 -0.272244 -8.65956e-17 -0.711409 -0.657256 -0.927602 -0.856992 -0.657256 -0.503042 -0.856992 -0.655914 -0.927602 -0.856992 -1 -0.92388 -0.856992 -0.655914 -0.92388 -0.707107 -0.503042 -0.272244 -0.655914 -0.354978 -0.272244 -8.65956e-17 -0.354978 -1.13143e-16 -0.655914 -0.354978 -0.707107 -0.382683 -0.354978 -1.13143e-16 -0.382683 -1.22465e-16 
